LAMMPS data file

1071 atoms
4 atom types
714 bonds
2 bond types
357 angles
2 angle types

-11.200574 11.200574 xlo xhi
-11.200574 11.200574 ylo yhi
-11.200574 11.200574 zlo zhi

Masses

1 15.035000
2 14.027000
3 1.0080000
4 15.999400

Bond Coeffs 

1 95.877 1.54
2 450 0.9572

Angle Coeffs

1 62.0965 114
2 55 104.52

Atoms

1 1 1 0.0000000 14.247781 20.885466 12.474237
2 1 2 0.0000000 14.314033 19.347559 12.519440
3 1 1 0.0000000 15.655931 18.764034 12.039485
4 2 3 0.41700000 15.878613 11.088179 20.290068
5 2 4 -0.83399999 16.697548 11.380393 19.889746
6 2 3 0.41700000 17.373285 10.848493 20.310110
7 3 3 0.41700000 9.9658918 21.019569 0.58060712
8 3 4 -0.83399999 9.2647533 20.697180 1.43078389E-02
9 3 3 0.41700000 8.4905310 21.189642 0.28687650
10 4 3 0.41700000 15.693121 0.89862508 10.113407
11 4 4 -0.83399999 15.282036 1.7132690 10.402528
12 4 3 0.41700000 15.394855 1.7148688 11.353106
13 5 3 0.41700000 0.72524989 7.1224370 17.300659
14 5 4 -0.83399999 1.2204587 6.6754017 16.614264
15 5 3 0.41700000 1.6773481 7.3779354 16.151735
16 6 3 0.41700000 17.511822 14.012452 13.808332
17 6 4 -0.83399999 17.968721 14.046474 12.967909
18 6 3 0.41700000 18.893238 13.942330 13.192976
19 7 3 0.41700000 14.895180 0.99922639 -7.90824220E-02
20 7 4 -0.83399999 14.251813 0.83228076 0.60966551
21 7 3 0.41700000 14.391528 1.5352511 1.2441292
22 8 3 0.41700000 21.191538 3.5641298 17.519478
23 8 4 -0.83399999 20.986246 4.4846225 17.683111
24 8 3 0.41700000 21.312872 4.9445004 16.909767
25 9 3 0.41700000 19.267620 11.818963 17.605574
26 9 4 -0.83399999 20.138317 12.214329 17.648001
27 9 3 0.41700000 20.526993 12.031024 16.792662
28 10 3 0.41700000 1.5008364 14.506193 15.092438
29 10 4 -0.83399999 2.0413361 13.717438 15.136618
30 10 3 0.41700000 2.9306819 14.025904 14.962989
31 11 3 0.41700000 10.291054 20.202465 20.520035
32 11 4 -0.83399999 10.951358 20.056086 19.842688
33 11 3 0.41700000 10.986250 20.881462 19.359192
34 12 3 0.41700000 16.240667 7.1570592 21.537397
35 12 4 -0.83399999 15.729808 6.9076304 20.767309
36 12 3 0.41700000 15.036526 6.3443980 21.111347
37 13 3 0.41700000 0.76930678 11.346249 8.6103172
38 13 4 -0.83399999 8.81960019E-02 10.730006 8.3407707
39 13 3 0.41700000 -0.66662228 10.953412 8.8854237
40 14 3 0.41700000 1.0296836 16.476101 16.121239
41 14 4 -0.83399999 0.86946875 16.332033 15.188606
42 14 3 0.41700000 1.5587267 16.828354 14.747220
43 15 3 0.41700000 20.038788 18.188917 22.362534
44 15 4 -0.83399999 20.229361 18.642839 21.541636
45 15 3 0.41700000 21.133696 18.403162 21.339231
46 16 3 0.41700000 4.2235913 14.603578 10.595609
47 16 4 -0.83399999 4.3056579 14.560757 9.6428967
48 16 3 0.41700000 5.2453518 14.466451 9.4869614
49 17 3 0.41700000 9.7832069 17.295227 8.1792421
50 17 4 -0.83399999 9.4925747 17.251541 7.2683172
51 17 3 0.41700000 8.7222319 16.683764 7.2891679
52 18 3 0.41700000 18.271099 5.2616200 8.3797979
53 18 4 -0.83399999 18.371853 6.1851153 8.1490793
54 18 3 0.41700000 19.175394 6.2164826 7.6298766
55 19 3 0.41700000 4.3549109 1.2579263 10.188978
56 19 4 -0.83399999 3.9512467 1.1845937 11.053793
57 19 3 0.41700000 4.5844297 0.68875933 11.572968
58 20 3 0.41700000 18.013512 16.711540 12.618894
59 20 4 -0.83399999 18.221354 17.222490 13.401171
60 20 3 0.41700000 19.171484 17.148518 13.490698
61 21 3 0.41700000 4.7700348 15.060555 4.5629702
62 21 4 -0.83399999 3.9058604 14.683742 4.3973093
63 21 3 0.41700000 3.4191186 14.834125 5.2076797
64 22 3 0.41700000 16.241421 7.3447561 3.9886484
65 22 4 -0.83399999 17.049065 7.3924980 3.4771221
66 22 3 0.41700000 17.471901 6.5451508 3.6165674
67 23 3 0.41700000 4.1470490 -7.02145919E-02 17.381321
68 23 4 -0.83399999 3.2527156 0.16406283 17.629417
69 23 3 0.41700000 2.7238925 -0.58590460 17.357159
70 24 3 0.41700000 0.48782629 9.2557602 7.4628220
71 24 4 -0.83399999 0.88130730 8.5285912 6.9805098
72 24 3 0.41700000 1.4532684 8.9483719 6.3379536
73 25 3 0.41700000 4.3592925 19.505781 11.586131
74 25 4 -0.83399999 4.2340541 18.557398 11.552855
75 25 3 0.41700000 5.0483031 18.220762 11.178687
76 26 3 0.41700000 9.9525557 6.3909316 21.830513
77 26 4 -0.83399999 10.904250 6.3067718 21.772028
78 26 3 0.41700000 11.239016 6.8870354 22.455790
79 27 3 0.41700000 19.741829 20.797848 21.755093
80 27 4 -0.83399999 20.226105 21.621498 21.812586
81 27 3 0.41700000 21.146692 21.359306 21.810005
82 28 3 0.41700000 10.646633 18.053631 6.1428685
83 28 4 -0.83399999 11.341506 18.582952 5.7513037
84 28 3 0.41700000 11.240056 19.446394 6.1518168
85 29 3 0.41700000 11.751226 6.8196440 18.382950
86 29 4 -0.83399999 12.037691 7.7192554 18.225269
87 29 3 0.41700000 11.423528 8.0558062 17.572758
88 30 3 0.41700000 13.508464 13.006997 17.252167
89 30 4 -0.83399999 12.847013 13.114947 16.568825
90 30 3 0.41700000 13.311151 13.546603 15.851548
91 31 3 0.41700000 13.756471 19.158033 3.8898997
92 31 4 -0.83399999 13.543631 19.077864 2.9601152
93 31 3 0.41700000 13.712782 18.158642 2.7535877
94 32 3 0.41700000 11.473998 15.986712 5.6885095
95 32 4 -0.83399999 11.393696 15.218504 5.1231732
96 32 3 0.41700000 10.450133 15.087909 5.0283809
97 33 3 0.41700000 16.554487 16.420874 20.085325
98 33 4 -0.83399999 16.535303 15.667884 20.675976
99 33 3 0.41700000 17.441870 15.567440 20.966290
100 34 3 0.41700000 15.973978 3.2426956 10.110989
101 34 4 -0.83399999 16.221222 4.1424460 9.8975744
102 34 3 0.41700000 17.171261 4.1100616 9.7852850
103 35 3 0.41700000 13.689094 19.834436 6.1429496
104 35 4 -0.83399999 14.405848 19.561699 5.5700688
105 35 3 0.41700000 15.050717 20.265471 5.6408696
106 36 3 0.41700000 21.777250 16.945923 14.256096
107 36 4 -0.83399999 20.988747 17.095181 13.734374
108 36 3 0.41700000 21.311718 17.223022 12.842451
109 37 3 0.41700000 0.73045057 13.290288 11.045747
110 37 4 -0.83399999 0.57818598 13.894711 11.772282
111 37 3 0.41700000 0.95533484 13.454330 12.533897
112 38 3 0.41700000 15.614217 22.787792 2.5226569
113 38 4 -0.83399999 15.954835 22.117695 3.1152587
114 38 3 0.41700000 16.504404 21.563847 2.5607800
115 39 3 0.41700000 0.63687795 6.7665801 7.2105527
116 39 4 -0.83399999 0.77225530 5.8888173 7.5674629
117 39 3 0.41700000 1.2340200 5.4165874 6.8746438
118 40 3 0.41700000 2.54253391E-02 16.809429 4.9138594
119 40 4 -0.83399999 0.46440160 16.271667 5.5729032
120 40 3 0.41700000 0.68181777 16.883654 6.2760677
121 41 3 0.41700000 19.997400 12.495579 4.9167161
122 41 4 -0.83399999 20.027708 13.199536 4.2688341
123 41 3 0.41700000 19.604244 12.830685 3.4936814
124 42 3 0.41700000 6.2795868 10.744153 5.7293372
125 42 4 -0.83399999 5.4301424 10.921912 5.3254514
126 42 3 0.41700000 5.6440229 11.332432 4.4876122
127 43 3 0.41700000 7.5378437 13.702263 15.201292
128 43 4 -0.83399999 6.6914058 13.327645 15.445074
129 43 3 0.41700000 6.8622885 12.860538 16.262903
130 44 3 0.41700000 2.2759223 21.978970 11.442328
131 44 4 -0.83399999 1.7730274 21.304256 10.986114
132 44 3 0.41700000 2.1405933 21.287287 10.102461
133 45 3 0.41700000 10.798395 5.2042637 13.528346
134 45 4 -0.83399999 11.091308 4.5750451 14.187523
135 45 3 0.41700000 10.544558 4.7563210 14.952006
136 46 3 0.41700000 -0.32240245 8.5142698 14.828956
137 46 4 -0.83399999 0.18944973 8.6816473 14.037670
138 46 3 0.41700000 9.76785459E-03 7.9304962 13.472232
139 47 3 0.41700000 17.785685 21.763361 21.657228
140 47 4 -0.83399999 17.574623 21.943993 20.741232
141 47 3 0.41700000 17.396338 21.083466 20.361835
142 48 3 0.41700000 3.4466591 13.880447 19.799395
143 48 4 -0.83399999 2.8114967 14.374816 20.317415
144 48 3 0.41700000 3.2125642 15.236578 20.430275
145 49 3 0.41700000 1.8017319 9.2732582 16.861971
146 49 4 -0.83399999 2.6812582 9.0554962 16.553398
147 49 3 0.41700000 3.2669654 9.5281534 17.144836
148 50 3 0.41700000 9.5202999 13.315121 13.501050
149 50 4 -0.83399999 9.2407846 13.668115 14.345736
150 50 3 0.41700000 9.1972895 14.614305 14.207871
151 51 3 0.41700000 16.878065 19.313183 18.798832
152 51 4 -0.83399999 16.258858 19.607086 18.130678
153 51 3 0.41700000 15.444348 19.760906 18.609373
154 52 3 0.41700000 6.1116891 22.577187 3.9921649
155 52 4 -0.83399999 7.0249596 22.337959 4.1498308
156 52 3 0.41700000 7.0591850 22.122757 5.0818982
157 53 3 0.41700000 21.661737 4.4264684 1.5578519
158 53 4 -0.83399999 21.120594 3.8349600 2.0808325
159 53 3 0.41700000 21.435295 2.9594963 1.8555293
160 54 3 0.41700000 1.8410683 12.541335 16.636383
161 54 4 -0.83399999 1.2803713 12.107900 17.279791
162 54 3 0.41700000 0.92322427 12.822501 17.807070
163 55 3 0.41700000 4.9835401 8.5855074 5.3987679
164 55 4 -0.83399999 4.1589108 8.1856823 5.6751838
165 55 3 0.41700000 3.5106282 8.8837185 5.5818596
166 56 3 0.41700000 -0.25496590 0.64783126 17.805498
167 56 4 -0.83399999 0.16992643 1.4648349 18.066647
168 56 3 0.41700000 0.46926320 1.3043085 18.961555
169 57 3 0.41700000 7.6515803 14.069082 8.25629681E-02
170 57 4 -0.83399999 7.1506367 13.337764 0.44375011
171 57 3 0.41700000 7.0380435 12.736943 -0.29287440
172 58 3 0.41700000 13.735288 12.689156 6.7618585
173 58 4 -0.83399999 14.452954 12.166842 7.1201468
174 58 3 0.41700000 14.660368 11.537927 6.4290056
175 59 3 0.41700000 21.815500 16.307756 10.357800
176 59 4 -0.83399999 22.240911 16.599279 11.164210
177 59 3 0.41700000 22.879457 15.913638 11.360148
178 60 3 0.41700000 13.078468 5.0189257 15.586182
179 60 4 -0.83399999 14.001704 5.2180276 15.741811
180 60 3 0.41700000 14.082861 6.1508403 15.543043
181 61 3 0.41700000 16.196667 22.088829 5.0907159
182 61 4 -0.83399999 16.283850 21.414244 5.7641549
183 61 3 0.41700000 16.983889 21.732950 6.3338962
184 62 3 0.41700000 1.9987845 2.3196449 20.472673
185 62 4 -0.83399999 2.1107442 3.2313619 20.741867
186 62 3 0.41700000 2.2427828 3.7089214 19.922882
187 63 3 0.41700000 3.0962903 20.807640 13.820462
188 63 4 -0.83399999 4.0447178 20.859838 13.702192
189 63 3 0.41700000 4.3714304 21.206221 14.532567
190 64 3 0.41700000 8.8907490 9.3832579 4.0494132
191 64 4 -0.83399999 9.0900974 8.6609659 3.4537780
192 64 3 0.41700000 10.003813 8.8003321 3.2049115
193 65 3 0.41700000 2.4688599 6.8722281 9.7994862
194 65 4 -0.83399999 3.1402490 6.2009153 9.6778193
195 65 3 0.41700000 2.6540840 5.4209957 9.4101801
196 66 3 0.41700000 21.803350 17.895546 19.071018
197 66 4 -0.83399999 22.305141 17.728613 19.868870
198 66 3 0.41700000 22.579897 16.814829 19.792791
199 67 3 0.41700000 20.583450 11.089104 1.7045465
200 67 4 -0.83399999 21.420622 10.666408 1.5129861
201 67 3 0.41700000 22.071634 11.357749 1.6335503
202 68 3 0.41700000 21.904715 6.5454125 10.377323
203 68 4 -0.83399999 21.311100 6.3127718 9.6633711
204 68 3 0.41700000 21.888235 6.1216559 8.9240332
205 69 3 0.41700000 14.359766 7.2176194 0.73666137
206 69 4 -0.83399999 14.537533 7.4169426 1.6558439
207 69 3 0.41700000 14.487446 6.5700350 2.0990949
208 70 3 0.41700000 8.9176807 7.3667064 17.527918
209 70 4 -0.83399999 8.0184908 7.3572683 17.855934
210 70 3 0.41700000 7.5025129 7.7524052 17.153177
211 71 3 0.41700000 12.324368 17.684776 16.153023
212 71 4 -0.83399999 12.350005 18.396227 16.792873
213 71 3 0.41700000 13.005579 18.119658 17.433084
214 72 3 0.41700000 16.622822 15.482140 1.5316846
215 72 4 -0.83399999 16.689251 16.354679 1.9196107
216 72 3 0.41700000 17.276047 16.240887 2.6672442
217 73 3 0.41700000 13.385074 7.6836634 11.654220
218 73 4 -0.83399999 12.713392 8.3654823 11.667309
219 73 3 0.41700000 12.985333 8.9833841 10.988647
220 74 3 0.41700000 1.2395766 2.1159570 16.676434
221 74 4 -0.83399999 2.1515260 2.3192456 16.468472
222 74 3 0.41700000 2.6545706 1.6204718 16.886637
223 75 3 0.41700000 12.951086 16.563772 1.3498938
224 75 4 -0.83399999 13.321838 16.556885 2.2323453
225 75 3 0.41700000 14.078117 15.973418 2.1703670
226 76 3 0.41700000 20.974041 7.6395812 21.476303
227 76 4 -0.83399999 20.652452 6.7452970 21.590595
228 76 3 0.41700000 20.260492 6.7410131 22.463856
229 77 3 0.41700000 9.7283707 20.816315 5.1903582
230 77 4 -0.83399999 9.3159227 20.765942 4.3280501
231 77 3 0.41700000 8.7568207 21.541620 4.2837625
232 78 3 0.41700000 6.7901711 16.719254 15.724687
233 78 4 -0.83399999 7.7137370 16.968927 15.754972
234 78 3 0.41700000 8.0301800 16.617500 16.587194
235 79 3 0.41700000 5.9964204 17.798237 3.6964700
236 79 4 -0.83399999 5.6423082 17.030230 4.1447964
237 79 3 0.41700000 4.9666071 17.381266 4.7248254
238 80 3 0.41700000 8.2306032 -8.55268314E-02 20.878946
239 80 4 -0.83399999 7.7156386 0.29277980 20.166241
240 80 3 0.41700000 7.7220125 1.2342318 20.339045
241 81 3 0.41700000 17.505432 21.942694 12.736952
242 81 4 -0.83399999 17.534054 21.956003 11.780274
243 81 3 0.41700000 18.320477 22.459793 11.570637
244 82 3 0.41700000 15.995291 8.9875946 8.5117807
245 82 4 -0.83399999 15.672335 9.0232220 9.4121456
246 82 3 0.41700000 16.417938 9.3396873 9.9222040
247 83 3 0.41700000 5.3021307 6.8138986 13.109099
248 83 4 -0.83399999 4.9800777 6.8301959 14.010344
249 83 3 0.41700000 4.1454186 7.2959180 13.958551
250 84 3 0.41700000 12.079246 20.995667 15.276747
251 84 4 -0.83399999 11.414323 20.335535 15.080906
252 84 3 0.41700000 11.590020 19.626911 15.699949
253 85 3 0.41700000 10.036356 11.946055 20.962410
254 85 4 -0.83399999 10.409120 12.813980 21.117271
255 85 3 0.41700000 9.7202034 13.292203 21.578712
256 86 3 0.41700000 17.931301 19.761108 15.326768
257 86 4 -0.83399999 17.034565 19.446970 15.442619
258 86 3 0.41700000 16.907370 19.428715 16.391180
259 87 3 0.41700000 8.7008343 17.894461 10.332581
260 87 4 -0.83399999 9.4902315 17.464973 10.003006
261 87 3 0.41700000 9.3696594 16.540865 10.221456
262 88 3 0.41700000 9.6498756 2.4080787 14.209498
263 88 4 -0.83399999 9.2382269 1.6325692 13.828239
264 88 3 0.41700000 9.7916155 0.90411967 14.109941
265 89 3 0.41700000 10.420182 14.729775 17.064978
266 89 4 -0.83399999 10.630871 15.658893 17.157600
267 89 3 0.41700000 11.105685 15.878357 16.355913
268 90 3 0.41700000 13.966158 3.0237932 12.311971
269 90 4 -0.83399999 13.695371 3.9391580 12.382742
270 90 3 0.41700000 13.211717 3.9832649 13.207585
271 91 3 0.41700000 6.3195314 15.158813 1.8501672
272 91 4 -0.83399999 6.6492729 14.995582 2.7338259
273 91 3 0.41700000 6.3598056 15.753474 3.2418036
274 92 3 0.41700000 9.9317694 1.7641519 8.5285864
275 92 4 -0.83399999 10.499055 1.5292584 9.2629156
276 92 3 0.41700000 11.387688 1.6427766 8.9256544
277 93 3 0.41700000 -0.69693565 10.259419 11.484509
278 93 4 -0.83399999 7.45156035E-02 9.7067986 11.610223
279 93 3 0.41700000 0.21077342 9.6967030 12.557623
280 94 3 0.41700000 6.5487695 21.399666 11.752042
281 94 4 -0.83399999 6.3373871 20.475517 11.884305
282 94 3 0.41700000 5.5805874 20.483919 12.470324
283 95 3 0.41700000 17.978201 4.2077093 4.4517341
284 95 4 -0.83399999 18.199772 5.1087890 4.2168150
285 95 3 0.41700000 19.065876 5.2503858 4.5989757
286 96 3 0.41700000 5.2700300 12.953320 0.61961037
287 96 4 -0.83399999 4.3682518 12.724220 0.39478433
288 96 3 0.41700000 4.1395822 13.320989 -0.31778476
289 97 3 0.41700000 18.886738 15.901299 4.5751953
290 97 4 -0.83399999 19.071514 15.651731 3.6697669
291 97 3 0.41700000 19.341167 14.734888 3.7238004
292 98 3 0.41700000 15.122394 2.1156240 16.523750
293 98 4 -0.83399999 15.279762 2.5805058 15.701955
294 98 3 0.41700000 14.830990 3.4189548 15.810812
295 99 3 0.41700000 0.92611146 21.413002 5.0781541
296 99 4 -0.83399999 1.6782503 21.564896 5.6503391
297 99 3 0.41700000 2.3985863 21.763769 5.0521965
298 100 3 0.41700000 20.800539 13.942652 6.1447983
299 100 4 -0.83399999 21.138302 13.602843 6.9734559
300 100 3 0.41700000 21.855442 13.021696 6.7200532
301 101 3 0.41700000 9.8672771 21.743916 18.049217
302 101 4 -0.83399999 8.9755526 21.471783 17.832430
303 101 3 0.41700000 8.4243078 22.194042 18.133598
304 102 3 0.41700000 21.284344 1.9068666 4.3032136
305 102 4 -0.83399999 20.798513 1.1493086 4.6292534
306 102 3 0.41700000 20.566519 1.3818078 5.5283399
307 103 3 0.41700000 6.2782388 2.5248406 8.4091539
308 103 4 -0.83399999 7.1214175 2.5869575 8.8579512
309 103 3 0.41700000 7.7685056 2.3856285 8.1819506
310 104 3 0.41700000 16.325544 17.879837 0.95415485
311 104 4 -0.83399999 16.276636 18.763004 0.58824277
312 104 3 0.41700000 15.339998 18.924036 0.47431880
313 105 3 0.41700000 6.7807970 14.028580 4.6237431
314 105 4 -0.83399999 6.7026520 14.039104 5.5776882
315 105 3 0.41700000 6.3858700 13.164154 5.8022232
316 106 3 0.41700000 20.965202 7.8485713 6.9207511
317 106 4 -0.83399999 20.389364 7.2726002 6.4178643
318 106 3 0.41700000 19.602737 7.7955141 6.2628965
319 107 3 0.41700000 16.022409 12.465517 7.4832621
320 107 4 -0.83399999 16.811035 12.913093 7.7898111
321 107 3 0.41700000 16.783472 13.768500 7.3611503
322 108 3 0.41700000 14.767049 10.125797 15.811732
323 108 4 -0.83399999 15.521916 9.7752419 16.284502
324 108 3 0.41700000 15.142978 9.1976528 16.947041
325 109 3 0.41700000 19.962212 11.135214 14.061825
326 109 4 -0.83399999 20.530439 11.472480 14.754424
327 109 3 0.41700000 21.332268 11.733182 14.301282
328 110 3 0.41700000 10.520700 4.5659518 19.301493
329 110 4 -0.83399999 10.952910 5.4009695 19.122145
330 110 3 0.41700000 10.748837 5.9450707 19.882763
331 111 3 0.41700000 2.9502130 17.836830 6.2598267
332 111 4 -0.83399999 3.4621482 17.808596 5.4515080
333 111 3 0.41700000 3.2840021 18.646879 5.0251598
334 112 3 0.41700000 0.74586570 5.8415165 -7.03563988E-02
335 112 4 -0.83399999 0.99860388 5.0949550 0.47281083
336 112 3 0.41700000 1.2402155 4.4130721 -0.15395023
337 113 3 0.41700000 3.9190023 20.312084 3.9537785
338 113 4 -0.83399999 4.4947777 20.711800 4.6056008
339 113 3 0.41700000 5.2907414 20.180717 4.5805898
340 114 3 0.41700000 1.3176957 20.439283 12.570554
341 114 4 -0.83399999 0.87584329 20.391621 13.418328
342 114 3 0.41700000 0.34986961 21.190271 13.460061
343 115 3 0.41700000 5.2926865 13.504145 18.768461
344 115 4 -0.83399999 4.6772528 12.811621 19.009026
345 115 3 0.41700000 5.0967412 12.004029 18.712284
346 116 3 0.41700000 14.305561 6.1010113 9.5116491
347 116 4 -0.83399999 14.027398 6.6886764 8.8091516
348 116 3 0.41700000 14.511121 7.4991241 8.9685850
349 117 3 0.41700000 13.385592 11.122746 21.092821
350 117 4 -0.83399999 14.290628 11.412971 21.206852
351 117 3 0.41700000 14.241558 12.368514 21.179207
352 118 3 0.41700000 7.6996264 5.1828127 10.483623
353 118 4 -0.83399999 7.4739070 4.4355502 11.037586
354 118 3 0.41700000 7.3744683 3.7053540 10.426762
355 119 3 0.41700000 15.501206 20.980528 9.7735214
356 119 4 -0.83399999 16.100754 21.716173 9.6486378
357 119 3 0.41700000 16.607552 21.753109 10.459826
358 120 3 0.41700000 17.814791 9.4757242 6.5791845
359 120 4 -0.83399999 18.771351 9.4742813 6.6140742
360 120 3 0.41700000 18.979773 9.7806778 7.4966359
361 121 3 0.41700000 20.285652 7.6320910 9.4807968
362 121 4 -0.83399999 19.836245 8.4575434 9.2994452
363 121 3 0.41700000 19.029945 8.1988077 8.8531599
364 122 3 0.41700000 21.121284 4.4891348 6.4510827
365 122 4 -0.83399999 21.769716 3.8791842 6.0993385
366 122 3 0.41700000 22.361452 4.4282894 5.5849938
367 123 3 0.41700000 6.5063958 16.898615 6.3985963
368 123 4 -0.83399999 6.6954336 16.277834 7.1022444
369 123 3 0.41700000 6.5985088 15.416942 6.6952124
370 124 3 0.41700000 11.035907 15.492255 12.534619
371 124 4 -0.83399999 11.951876 15.744495 12.651807
372 124 3 0.41700000 11.935080 16.700977 12.684859
373 125 3 0.41700000 9.7829723 2.7741017 20.060688
374 125 4 -0.83399999 9.6707325 2.9973047 19.136669
375 125 3 0.41700000 8.7225504 3.0462971 19.015072
376 126 3 0.41700000 2.0682299 4.0009813 17.416655
377 126 4 -0.83399999 2.1019232 4.3924656 18.289484
378 126 3 0.41700000 1.2709615 4.8597980 18.375139
379 127 3 0.41700000 4.6674433 2.2771840 3.6803269
380 127 4 -0.83399999 4.1748314 2.0194466 2.9011443
381 127 3 0.41700000 3.8631155 2.8449998 2.5303116
382 128 3 0.41700000 15.307733 7.6688504 19.024075
383 128 4 -0.83399999 15.001683 7.8767424 18.141272
384 128 3 0.41700000 14.052723 7.7582641 18.182142
385 129 3 0.41700000 21.239429 -1.06220488E-02 13.573424
386 129 4 -0.83399999 21.660654 0.24895997 12.754079
387 129 3 0.41700000 21.186039 1.0330710 12.478146
388 130 3 0.41700000 2.6441929 0.60449493 19.280392
389 130 4 -0.83399999 2.1642008 0.55670464 20.107162
390 130 3 0.41700000 2.7824640 0.16029404 20.721037
391 131 3 0.41700000 8.2812424 20.123751 16.241041
392 131 4 -0.83399999 8.1343727 19.539198 15.497432
393 131 3 0.41700000 8.0601196 18.668352 15.887751
394 132 3 0.41700000 0.61511874 18.894243 8.1934624
395 132 4 -0.83399999 0.99996626 18.246830 7.6027222
396 132 3 0.41700000 1.6977018 17.838861 8.1155186
397 133 3 0.41700000 20.476311 0.30444536 19.778946
398 133 4 -0.83399999 19.790134 0.37033644 19.114832
399 133 3 0.41700000 18.986557 0.12834641 19.575199
400 134 3 0.41700000 3.2946911 15.755502 2.9442418
401 134 4 -0.83399999 3.0322022 16.581291 2.5375481
402 134 3 0.41700000 3.0382586 17.214785 3.2551014
403 135 3 0.41700000 8.9411945 10.440579 9.3431444
404 135 4 -0.83399999 9.4868774 11.219496 9.2353983
405 135 3 0.41700000 10.184824 10.943389 8.6413870
406 136 3 0.41700000 19.336306 8.1821022 16.205378
407 136 4 -0.83399999 19.442194 7.4214277 15.634073
408 136 3 0.41700000 18.584799 6.9959016 15.639677
409 137 3 0.41700000 6.8216062 2.2917359 13.300155
410 137 4 -0.83399999 6.6472688 3.2274537 13.401476
411 137 3 0.41700000 7.0855832 3.6354754 12.654727
412 138 3 0.41700000 22.620707 8.4257517 3.3393505
413 138 4 -0.83399999 21.711794 8.3831348 3.0422058
414 138 3 0.41700000 21.622356 9.1194534 2.4371700
415 139 3 0.41700000 7.9829049 8.3148556 19.338108
416 139 4 -0.83399999 8.0885277 8.6832762 20.215227
417 139 3 0.41700000 8.1500807 7.9204421 20.790140
418 140 3 0.41700000 2.5778348 12.702252 9.7691975
419 140 4 -0.83399999 1.8680853 12.061587 9.8142672
420 140 3 0.41700000 2.2414722 11.323236 10.295570
421 141 3 0.41700000 12.307765 10.280772 15.172612
422 141 4 -0.83399999 12.843594 10.491120 15.937380
423 141 3 0.41700000 12.626971 11.401468 16.139086
424 142 3 0.41700000 6.9182901 3.4812021 0.88742894
425 142 4 -0.83399999 7.4725013 2.9746780 1.4811536
426 142 3 0.41700000 7.1661973 3.2119739 2.3564265
427 143 3 0.41700000 15.551549 10.098189 5.4523630
428 143 4 -0.83399999 15.882967 9.5547590 6.1672788
429 143 3 0.41700000 15.728827 8.6558151 5.8768086
430 144 3 0.41700000 13.993531 19.087152 8.8038054
431 144 4 -0.83399999 13.715274 19.948179 9.1159468
432 144 3 0.41700000 12.895480 19.781416 9.5810928
433 145 3 0.41700000 18.607864 18.719870 20.536434
434 145 4 -0.83399999 17.738756 19.111155 20.624594
435 145 3 0.41700000 17.453526 18.866352 21.504906
436 146 3 0.41700000 11.806063 2.9822872 14.974767
437 146 4 -0.83399999 11.949076 2.4386086 15.749485
438 146 3 0.41700000 11.568203 2.9416153 16.469309
439 147 3 0.41700000 17.970993 19.364193 6.5834670
440 147 4 -0.83399999 18.778704 19.876160 6.6249776
441 147 3 0.41700000 18.835674 20.161024 7.5370302
442 148 3 0.41700000 21.048019 11.928411 19.360813
443 148 4 -0.83399999 21.762196 11.803398 19.985754
444 148 3 0.41700000 22.113211 12.682459 20.128077
445 149 3 0.41700000 14.615634 21.355747 19.756180
446 149 4 -0.83399999 15.153049 22.044888 19.365669
447 149 3 0.41700000 15.783403 22.273703 20.048698
448 150 3 0.41700000 4.8201528 6.3260422 10.769851
449 150 4 -0.83399999 5.4654560 6.5977783 11.422529
450 150 3 0.41700000 6.1557646 5.9369950 11.367092
451 151 3 0.41700000 4.5762606 10.762605 1.2877722
452 151 4 -0.83399999 4.9970775 9.9219942 1.4680889
453 151 3 0.41700000 4.9565086 9.4499950 0.63634092
454 152 3 0.41700000 2.6753914 15.392916 7.4062672
455 152 4 -0.83399999 2.6337326 14.661933 6.7896991
456 152 3 0.41700000 1.7885027 14.764721 6.3523722
457 153 3 0.41700000 7.6897593 6.4516082 13.101772
458 153 4 -0.83399999 8.1557789 7.2017736 12.732580
459 153 3 0.41700000 8.9663839 6.8321533 12.382532
460 154 3 0.41700000 4.1680899 17.793777 15.420087
461 154 4 -0.83399999 5.0754228 18.093769 15.474665
462 154 3 0.41700000 5.0160666 19.047890 15.426038
463 155 3 0.41700000 16.017342 7.6182165 15.925975
464 155 4 -0.83399999 16.483831 6.8609710 15.572149
465 155 3 0.41700000 15.792837 6.2413812 15.337914
466 156 3 0.41700000 17.499105 2.2085810 21.927942
467 156 4 -0.83399999 16.763906 2.7464240 22.221939
468 156 3 0.41700000 16.221376 2.8586085 21.441355
469 157 3 0.41700000 10.814354 10.059062 13.399055
470 157 4 -0.83399999 11.769154 10.097591 13.455717
471 157 3 0.41700000 12.074177 9.4831667 12.788129
472 158 3 0.41700000 7.6350899 18.335239 21.458450
473 158 4 -0.83399999 6.8399911 18.260361 20.930777
474 158 3 0.41700000 6.2239156 17.788033 21.490767
475 159 3 0.41700000 10.407352 4.5075788 3.1632242
476 159 4 -0.83399999 11.122062 4.8931537 2.6565206
477 159 3 0.41700000 10.715392 5.6172423 2.1805489
478 160 3 0.41700000 15.373614 14.346605 18.255972
479 160 4 -0.83399999 15.140667 13.447762 18.023500
480 160 3 0.41700000 15.586085 12.907877 18.676462
481 161 3 0.41700000 20.000986 12.607440 7.8005838
482 161 4 -0.83399999 19.423573 12.098360 8.3694820
483 161 3 0.41700000 18.543997 12.415068 8.1638765
484 162 3 0.41700000 2.6212273 11.740592 0.24575301
485 162 4 -0.83399999 1.7527872 11.338206 0.25683889
486 162 3 0.41700000 1.6229407 11.022877 -0.63757402
487 163 3 0.41700000 -0.54808170 8.9699621 17.951765
488 163 4 -0.83399999 0.25476199 9.3754206 17.624321
489 163 3 0.41700000 1.09281437E-02 10.284645 17.450855
490 164 3 0.41700000 12.335402 7.4808369 1.6429752
491 164 4 -0.83399999 11.484087 7.8784623 1.4602661
492 164 3 0.41700000 11.694262 8.7269964 1.0703329
493 165 3 0.41700000 14.153427 1.1139222 18.774300
494 165 4 -0.83399999 13.549682 1.7988402 18.486887
495 165 3 0.41700000 13.987311 2.6176903 18.719688
496 166 3 0.41700000 7.0476432 6.0552125 21.867340
497 166 4 -0.83399999 7.7977214 6.5956149 22.115482
498 166 3 0.41700000 7.8108611 6.5633183 23.072046
499 167 3 0.41700000 18.987936 3.1531346 11.705961
500 167 4 -0.83399999 19.342989 2.3998692 12.177930
501 167 3 0.41700000 19.309736 2.6566267 13.099453
502 168 3 0.41700000 17.370258 9.4362803 3.1881835
503 168 4 -0.83399999 17.478815 10.338090 2.8862240
504 168 3 0.41700000 16.648384 10.763990 3.0988870
505 169 3 0.41700000 5.4232359 16.041981 17.676277
506 169 4 -0.83399999 4.8433890 15.290595 17.552082
507 169 3 0.41700000 5.3072214 14.729685 16.930410
508 170 3 0.41700000 12.972022 -0.49918780 3.3546052
509 170 4 -0.83399999 13.377337 0.24925767 3.7925515
510 170 3 0.41700000 14.284196 -2.00960152E-02 3.9381890
511 171 3 0.41700000 12.023136 9.3344040 6.1939802
512 171 4 -0.83399999 12.730618 8.9736137 6.7283273
513 171 3 0.41700000 12.480553 9.1802969 7.6288733
514 172 3 0.41700000 7.4516649 7.4598503 9.7906523
515 172 4 -0.83399999 7.6151800 6.6212044 9.3591862
516 172 3 0.41700000 7.0318332 6.6239920 8.6002836
517 173 3 0.41700000 9.5999374 15.808256 3.4907913
518 173 4 -0.83399999 9.0973501 15.053819 3.7981191
519 173 3 0.41700000 8.2451725 15.143241 3.3713717
520 174 3 0.41700000 8.7757130 16.693693 14.177005
521 174 4 -0.83399999 8.8547812 16.095612 13.433854
522 174 3 0.41700000 8.1772251 16.382626 12.821666
523 175 3 0.41700000 2.7221217 7.9869280 3.3879318
524 175 4 -0.83399999 1.8550382 8.3083487 3.6350784
525 175 3 0.41700000 2.0222125 9.1539030 4.0514021
526 176 3 0.41700000 5.7066660 10.020774 16.821310
527 176 4 -0.83399999 5.0292506 10.111496 17.491465
528 176 3 0.41700000 5.0066342 9.2592945 17.926752
529 177 3 0.41700000 8.9017487 7.8993435 8.8097744
530 177 4 -0.83399999 9.1695805 8.3010359 7.9832540
531 177 3 0.41700000 10.066348 7.9952688 7.8473167
532 178 3 0.41700000 20.918182 21.771093 10.752872
533 178 4 -0.83399999 20.268963 22.085281 10.123566
534 178 3 0.41700000 20.700117 22.003479 9.2728920
535 179 3 0.41700000 13.713096 5.6715579 4.2643619
536 179 4 -0.83399999 13.774723 5.1512084 3.4633217
537 179 3 0.41700000 12.866180 5.0187550 3.1926916
538 180 3 0.41700000 6.7906828 20.414042 9.8357601
539 180 4 -0.83399999 6.9625249 20.507629 8.8987455
540 180 3 0.41700000 7.8995953 20.695168 8.8442087
541 181 3 0.41700000 17.254110 6.9919066 13.318484
542 181 4 -0.83399999 17.306078 6.9516339 12.363548
543 181 3 0.41700000 17.968504 7.6024961 12.131591
544 182 3 0.41700000 13.059893 5.9805617 21.473885
545 182 4 -0.83399999 13.792384 5.6572871 21.998457
546 182 3 0.41700000 13.510151 4.7930346 22.297863
547 183 3 0.41700000 11.160444 12.898671 16.774433
548 183 4 -0.83399999 10.225121 13.044880 16.916355
549 183 3 0.41700000 9.8625889 13.150243 16.036751
550 184 3 0.41700000 20.233576 7.1421323 2.3164806
551 184 4 -0.83399999 19.812691 6.4035211 1.8765525
552 184 3 0.41700000 20.160917 5.6299796 2.3199542
553 185 3 0.41700000 21.494741 18.596828 1.9629211
554 185 4 -0.83399999 22.211353 19.229330 1.9115586
555 185 3 0.41700000 21.854010 20.028770 2.2981241
556 186 3 0.41700000 19.844467 9.1850576 19.327402
557 186 4 -0.83399999 20.088661 8.8237190 18.475327
558 186 3 0.41700000 19.399176 8.1901283 18.276817
559 187 3 0.41700000 4.4958973 13.878689 13.747073
560 187 4 -0.83399999 4.5164771 14.444191 14.519078
561 187 3 0.41700000 5.3437963 14.231035 14.950751
562 188 3 0.41700000 4.9713354 21.626574 21.514822
563 188 4 -0.83399999 4.2540011 22.207657 21.767803
564 188 3 0.41700000 4.1651645 22.081982 22.712545
565 189 3 0.41700000 9.8935518 17.156878 19.795181
566 189 4 -0.83399999 10.293826 16.290880 19.873011
567 189 3 0.41700000 10.471622 16.026684 18.970362
568 190 3 0.41700000 10.317997 18.647905 12.955117
569 190 4 -0.83399999 11.243602 18.424273 13.052990
570 190 3 0.41700000 11.561014 19.010971 13.739480
571 191 3 0.41700000 9.9006119 22.080528 9.4591446
572 191 4 -0.83399999 9.4579391 21.234777 9.3886108
573 191 3 0.41700000 10.033551 20.623549 9.8482876
574 192 3 0.41700000 20.739265 2.5978732 5.05291298E-02
575 192 4 -0.83399999 21.195719 1.8082809 0.34109712
576 192 3 0.41700000 20.660370 1.0865388 1.13651408E-02
577 193 3 0.41700000 1.3242184 14.394297 19.127798
578 193 4 -0.83399999 0.73708802 14.584388 18.396109
579 193 3 0.41700000 1.1539317 15.313642 17.937124
580 194 3 0.41700000 19.787849 20.903563 2.6414640
581 194 4 -0.83399999 20.628523 21.249136 2.9415846
582 194 3 0.41700000 20.396194 21.948786 3.5521243
583 195 3 0.41700000 4.3063874 11.883554 12.171597