LAMMPS data file via write_data, version 7 Sep 2016, timestep = 18703

1074 atoms
3 atom types
717 bonds
2 bond types
360 angles
2 angle types

-1.1208939439964814e+01 1.1208939439964814e+01 xlo xhi
-1.1208939439964814e+01 1.1208939439964814e+01 ylo yhi
-1.1208939439964814e+01 1.1208939439964814e+01 zlo zhi

Masses

1 13.018
2 1.008
3 15.9994

Bond Coeffs # harmonic

1 1000 1.4
2 450 0.9572

Angle Coeffs # harmonic

1 1000 120
2 55 104.52

Atoms # full

20 6 3 -8.3399999999999996e-01 -1.0671757763512206e+01 -4.4975802609059183e+00 -1.0407557763734127e+01 8 1 5
290 96 3 -8.3399999999999996e-01 -5.2400753170440604e+00 -8.8033668214490852e+00 -7.3526088540806409e+00 7 6 5
590 196 3 -8.3399999999999996e-01 -6.9254386764697671e+00 -6.1462750566422484e+00 -8.5505664336806060e+00 5 -5 -2
790 263 2 4.1699999999999998e-01 -3.7020353851174050e+00 -1.7515803588973089e+00 -1.1044196530369685e+01 14 6 0
430 143 2 4.1699999999999998e-01 -2.8413372540358335e+00 -1.2851879801747081e+00 -6.9160543546750013e+00 14 -3 -4
305 101 3 -8.3399999999999996e-01 -8.9505724835483171e+00 -7.4032370330979811e+00 -1.0548233012005898e+01 16 6 4
589 196 2 4.1699999999999998e-01 -7.5943370661020815e+00 -6.6211714303557248e+00 -9.0438153261640846e+00 5 -5 -2
306 101 2 4.1699999999999998e-01 -9.7006060964430958e+00 -7.2332709631332017e+00 -9.9782984265630823e+00 16 6 4
798 265 2 4.1699999999999998e-01 -8.8996587281364956e+00 -1.0557359989565166e+01 -9.6584112028294911e+00 10 -3 1
351 116 2 4.1699999999999998e-01 -3.3254098667293883e+00 -9.5036795923025696e+00 -8.9226704833688135e+00 7 -2 5
728 242 3 -8.3399999999999996e-01 -7.9207020672450952e+00 -9.4643884371810660e+00 -8.3864823578687648e+00 6 -4 7
42 13 2 4.1699999999999998e-01 -7.0686924738069958e+00 -6.2655665138005716e+00 -6.4212126387664323e+00 12 1 2
289 96 2 4.1699999999999998e-01 -5.5162931213058073e+00 -8.1947818888595449e+00 -6.6673543010112946e+00 7 6 5
797 265 3 -8.3399999999999996e-01 -9.0217967281361418e+00 -1.1204483922714504e+01 -1.0353054409780581e+01 10 -3 1
727 242 2 4.1699999999999998e-01 -7.0624200813581250e+00 -9.2238830789865425e+00 -8.0375485243206324e+00 6 -4 7
145 48 2 4.1699999999999998e-01 -1.0899953515639199e+01 -6.3593378200779416e+00 -6.1949966310198965e+00 9 -1 0
591 196 2 4.1699999999999998e-01 -6.1296513938890316e+00 -6.2396637723988384e+00 -9.0741430230333950e+00 5 -5 -2
56 18 3 -8.3399999999999996e-01 -3.6989598869332463e+00 -4.2543770283388422e+00 -6.6574569306385456e+00 8 -2 8
9 2 2 4.1699999999999998e-01 -4.0811734750008224e+00 -4.8937463519513127e+00 -9.2893201778372827e+00 9 4 1
701 233 3 -8.3399999999999996e-01 -8.2823655550607356e-01 -1.3166985045378983e+00 -1.0020464071446227e+01 11 -11 1
702 233 2 4.1699999999999998e-01 -9.5327962555862022e-01 -3.6769106628671011e-01 -1.0020588115865788e+01 11 -11 1
729 242 2 4.1699999999999998e-01 -8.5015351949636582e+00 -9.4504277289458027e+00 -7.6257655527504475e+00 6 -4 7
976 325 2 4.1699999999999998e-01 -5.3635916315422589e+00 -1.0783398259683848e+01 -7.1280043460949463e+00 5 -5 3
291 96 2 4.1699999999999998e-01 -4.2841509514777885e+00 -8.8028004321285778e+00 -7.3030259861839966e+00 7 6 5
55 18 2 4.1699999999999998e-01 -3.4240994558884417e+00 -4.7505098748812173e+00 -5.8864306068223700e+00 8 -2 8
432 143 2 4.1699999999999998e-01 -3.0833060561420105e+00 -2.6957842544116506e+00 -6.4224863291303844e+00 14 -3 -4
1022 340 3 -8.3399999999999996e-01 -2.5797049084669528e+00 -9.5593811023073663e+00 -6.9492475756800030e+00 6 -2 3
1023 340 2 4.1699999999999998e-01 -2.3380831487896057e+00 -8.9847389599786300e+00 -6.2228473367474360e+00 6 -2 3
1021 340 2 4.1699999999999998e-01 -1.7904820242226300e+00 -1.0072775030152439e+01 -7.1218755543829673e+00 6 -2 3
21 6 2 4.1699999999999998e-01 -1.0869350989745147e+01 -5.3687233920473121e+00 -1.0063584017184139e+01 8 1 5
128 42 3 -8.3399999999999996e-01 -1.4395821265266822e+00 -6.7329025617190288e+00 -9.2921401644992514e+00 4 -1 2
79 26 2 4.1699999999999998e-01 -1.0148998279860955e-01 -2.7925396946539678e+00 -8.6437071053991374e+00 5 -12 1
129 42 2 4.1699999999999998e-01 -1.6328591760386644e+00 -7.1387398956624972e+00 -8.4470410180488056e+00 4 -1 2
970 323 2 4.1699999999999998e-01 -1.0444402490642531e+01 -1.0357403583724558e+01 -6.0549119374680354e+00 7 -2 4
7 2 2 4.1699999999999998e-01 -3.0733488866406766e+00 -5.9203031089440277e+00 -9.7609268379216196e+00 9 4 1
329 109 3 -8.3399999999999996e-01 -5.3056312116083859e-01 -6.5994722594229200e+00 -6.2540651887032670e+00 13 -3 6
83 27 3 -8.3399999999999996e-01 -3.8778478815315927e+00 -3.0582705990713048e+00 -9.8589296943576041e+00 12 -2 5
464 154 3 -8.3399999999999996e-01 -6.6860049490297406e+00 -3.2307985553631520e+00 -1.0951723066283044e+01 11 -1 7
349 116 2 4.1699999999999998e-01 -4.8035513376191519e+00 -9.4345514460166680e+00 -9.2424519483001966e+00 7 -2 5
330 109 2 4.1699999999999998e-01 -3.5699725305625485e-01 -5.7703854526625085e+00 -6.6998698472023657e+00 13 -3 6
865 288 2 4.1699999999999998e-01 -4.5236316335175886e-01 -9.1455525877504211e+00 -9.3922393270496354e+00 14 3 6
905 301 3 -8.3399999999999996e-01 -9.4053102480965958e+00 -2.3630012813980397e+00 -6.8492596181433649e+00 9 -7 0
763 254 2 4.1699999999999998e-01 -8.9177055441108024e+00 -1.6745806680265787e+00 -8.8462211141150817e+00 15 -7 0
596 198 3 -8.3399999999999996e-01 -6.6846273697155931e+00 -3.2750382605411703e+00 -7.1685777088192424e+00 12 -4 7
597 198 2 4.1699999999999998e-01 -6.8282378628591358e+00 -4.1996987632980289e+00 -7.3701482081442098e+00 12 -4 7
906 301 2 4.1699999999999998e-01 -1.0094475377704645e+01 -1.6993109275361160e+00 -6.8206499769953250e+00 9 -7 0
127 42 2 4.1699999999999998e-01 -5.6035610873354891e-01 -7.0414641435622194e+00 -9.5110242442822361e+00 4 -1 2
971 323 3 -8.3399999999999996e-01 -9.9276734239366817e+00 -9.6049889330743738e+00 -5.7666255172329608e+00 7 -2 4
431 143 3 -8.3399999999999996e-01 -2.5536873236976270e+00 -1.9160006848093154e+00 -6.2560717349882982e+00 14 -3 -4
60 19 2 4.1699999999999998e-01 -5.5504698877356411e+00 -2.0453491879837049e+00 -7.3791992019526855e+00 14 -1 6
465 154 2 4.1699999999999998e-01 -5.8067797486712909e+00 -3.6088391180408754e+00 -1.0970089802136242e+01 11 -1 7
595 198 2 4.1699999999999998e-01 -7.5080267356372872e+00 -2.9841659935655738e+00 -6.7765922156664136e+00 12 -4 7
350 116 3 -8.3399999999999996e-01 -4.0027580454622571e+00 -9.9101935916426687e+00 -9.4632239668427456e+00 7 -2 5
765 254 2 4.1699999999999998e-01 -8.1709590323244079e+00 -2.4744317747532918e+00 -9.8924278661754315e+00 15 -7 0
58 19 2 4.1699999999999998e-01 -5.2880042784540588e+00 -1.0879669745376805e+00 -8.5222084720124194e+00 14 -1 6
617 205 3 -8.3399999999999996e-01 -6.1971718677231262e+00 -4.3476665338060627e-01 -1.0078047787757619e+01 7 0 -1
764 254 3 -8.3399999999999996e-01 -8.8180335584268299e+00 -1.7761346403568510e+00 -9.7927926961121425e+00 15 -7 0
8 2 3 -8.3399999999999996e-01 -4.0141818922809840e+00 -5.7525556842025756e+00 -9.7067061271994284e+00 9 4 1
904 301 2 4.1699999999999998e-01 -9.8691674939049925e+00 -3.1948902693904913e+00 -6.7541703848510286e+00 9 -7 0
618 205 2 4.1699999999999998e-01 -6.3613074754179690e+00 -9.2573813978766495e-01 -1.0883170474143666e+01 7 0 -1
867 288 2 4.1699999999999998e-01 -1.3875469912346663e+00 -9.7177777771203893e+00 -1.0436236461936867e+01 14 3 6
82 27 2 4.1699999999999998e-01 -4.0129179384194673e+00 -2.7659660290346899e+00 -8.9575093943703781e+00 12 -2 5
866 288 3 -8.3399999999999996e-01 -9.3773237773814877e-01 -9.9384212262024789e+00 -9.6205899291511248e+00 14 3 6
84 27 2 4.1699999999999998e-01 -2.9488053228616096e+00 -3.2848875246015403e+00 -9.9010790732430642e+00 12 -2 5
888 295 2 4.1699999999999998e-01 -5.2567300569342912e-01 -2.5513047756703369e+00 -5.9313384545247771e+00 7 1 3
59 19 3 -8.3399999999999996e-01 -4.9602725351989232e+00 -1.3463193706963654e+00 -7.6607614551504941e+00 14 -1 6
972 323 2 4.1699999999999998e-01 -1.0517246503825305e+01 -8.8572765767097543e+00 -5.8645095329849504e+00 7 -2 4
57 18 2 4.1699999999999998e-01 -4.6494114413346042e+00 -4.3639454776875697e+00 -6.6871287548147356e+00 8 -2 8
259 86 2 4.1699999999999998e-01 -6.1842719482062938e+00 -8.0834065615125290e+00 -4.5600360212800686e+00 9 -4 4
46 15 2 4.1699999999999998e-01 -4.8001642573443863e+00 -1.5081699367953725e+00 -5.0952475525721210e+00 8 -4 6
495 164 2 4.1699999999999998e-01 -3.1837709449010099e-01 -1.6471290444488851e+00 -3.1195256416780150e+00 3 -6 4
40 13 2 4.1699999999999998e-01 -7.1645830826161774e+00 -6.0450553731328798e+00 -4.9265669586698317e+00 12 1 2
1043 347 3 -8.3399999999999996e-01 -2.7663510764867461e-01 -2.9239434219393381e+00 -1.8321997281362599e+00 11 -5 -6
856 285 2 4.1699999999999998e-01 -1.0996929552999278e+01 -9.5132177862913814e+00 -1.5272365373850789e+00 13 -2 7
510 169 2 4.1699999999999998e-01 -5.8522491570468524e+00 -6.5557070585852486e+00 -3.1619162004708183e+00 6 -3 3
494 164 3 -8.3399999999999996e-01 -2.9193943887310070e-01 -8.8573646904705328e-01 -3.6990384766475737e+00 3 -6 4
198 65 2 4.1699999999999998e-01 -6.8672765154714437e+00 -1.0639543933611044e+00 -3.5635220494255311e+00 17 -11 4
858 285 2 4.1699999999999998e-01 -9.6796967198354675e+00 -1.0079254999419764e+01 -1.0411336446037183e+00 13 -2 7
359 119 3 -8.3399999999999996e-01 -8.2059875420323571e+00 -5.0836240622249624e+00 -3.5275868702266839e+00 5 -2 1
116 38 3 -8.3399999999999996e-01 -7.6754941271566315e+00 -1.1148765876537750e+01 -4.9916051725399395e+00 11 -1 2
261 86 2 4.1699999999999998e-01 -6.3317877416355870e+00 -9.5134270073998355e+00 -4.0854624075936252e+00 9 -4 4
577 192 2 4.1699999999999998e-01 -7.6291387538564805e+00 -6.4999825650011100e+00 -1.5046331701433253e+00 11 -3 1
781 260 2 4.1699999999999998e-01 -6.2296861500352909e+00 -4.3184384502952540e+00 -9.7955617297534658e-02 11 -6 0
505 168 2 4.1699999999999998e-01 -3.3201527684806180e+00 -6.7859006161621691e+00 -4.6478402488612005e+00 7 -1 2
506 168 3 -8.3399999999999996e-01 -3.3171153077731210e+00 -7.6468399536097191e+00 -5.0661945150384238e+00 7 -1 2
358 119 2 4.1699999999999998e-01 -9.1261713078319175e+00 -5.3470299316019734e+00 -3.5164291105550980e+00 5 -2 1
508 169 2 4.1699999999999998e-01 -6.1843089782985841e+00 -5.5094956094517809e+00 -2.1192549901123829e+00 6 -3 3
772 257 2 4.1699999999999998e-01 -9.3967797399122830e+00 -2.1013846818216209e-01 -2.8055942440304058e+00 4 -1 4
297 98 2 4.1699999999999998e-01 -4.3011338823245575e+00 -4.7615597529952876e+00 -3.8235516099091802e+00 2 2 8
285 94 2 4.1699999999999998e-01 -1.0185892233889117e+01 -2.8122911173356417e+00 -3.6282014506943749e+00 11 0 -2
295 98 2 4.1699999999999998e-01 -3.0870353376610797e+00 -4.8586492629424320e+00 -2.9243980564315262e+00 2 2 8
260 86 3 -8.3399999999999996e-01 -5.8255176428819526e+00 -8.7148375226117807e+00 -3.9365451431374128e+00 9 -4 4
608 202 3 -8.3399999999999996e-01 -3.6147395982911297e+00 -8.2808385726516178e+00 -2.3728670597688399e+00 8 -3 6
507 168 2 4.1699999999999998e-01 -3.8153198641392221e+00 -8.2053416693928014e+00 -4.4694671682730114e+00 7 -1 2
609 202 2 4.1699999999999998e-01 -3.6458148188219948e+00 -7.3620022182748377e+00 -2.1063617607944227e+00 8 -3 6
607 202 2 4.1699999999999998e-01 -4.5104296643476980e+00 -8.4826371556442712e+00 -2.6435390539955410e+00 8 -3 6
296 98 3 -8.3399999999999996e-01 -3.3629106051256805e+00 -4.9508333621287006e+00 -3.8363406156574742e+00 2 2 8
277 92 2 4.1699999999999998e-01 -1.9190371770286845e+00 -1.0935500474435987e+01 -3.0624513089222134e+00 10 5 2
278 92 3 -8.3399999999999996e-01 -1.5810416619173520e+00 -1.0253152858934776e+01 -2.4824459516589634e+00 10 5 2
279 92 2 4.1699999999999998e-01 -2.3060190115447998e+00 -9.6349186918399443e+00 -2.3911407179093889e+00 10 5 2
755 251 3 -8.3399999999999996e-01 -1.1078925044981061e+01 -3.9633438136730916e+00 -8.3878287827897680e-01 14 -2 -2
47 15 3 -8.3399999999999996e-01 -5.0228225127527306e+00 -1.6131952553040048e+00 -4.1702405520715233e+00 8 -4 6
64 21 2 4.1699999999999998e-01 -8.3437859185662084e+00 -1.7425963483814133e+00 -2.2559956187983428e+00 12 -2 -1
964 321 2 4.1699999999999998e-01 -5.7047632750813406e+00 -9.4508779620314751e+00 -3.0007390116550603e-01 10 -1 8
284 94 3 -8.3399999999999996e-01 -1.1007828464008210e+01 -2.4615494018061952e+00 -3.9712074465790943e+00 11 0 -2
782 260 3 -8.3399999999999996e-01 -6.4142057364950231e+00 -3.7512847133155383e+00 -8.4664394634301665e-01 11 -6 0
756 251 2 4.1699999999999998e-01 -1.0354756014102275e+01 -3.9264760578527307e+00 -1.4636148145225185e+00 14 -2 -2
783 260 2 4.1699999999999998e-01 -6.1263893179882976e+00 -2.8824892813030338e+00 -5.6627244766109541e-01 11 -6 0
65 21 3 -8.3399999999999996e-01 -8.6962490404983388e+00 -2.6310147334516856e+00 -2.2037650613728008e+00 12 -2 -1
66 21 2 4.1699999999999998e-01 -8.1757592509935666e+00 -3.0560053455461116e+00 -1.5220588582548871e+00 12 -2 -1
857 285 3 -8.3399999999999996e-01 -1.0543814462160340e+01 -1.0339640904935099e+01 -1.3601189804647760e+00 13 -2 7
360 119 2 4.1699999999999998e-01 -8.1916015681151499e+00 -4.2424223082503731e+00 -3.0710519172481590e+00 5 -2 1
509 169 3 -8.3399999999999996e-01 -5.7312645036737448e+00 -6.3445569401526480e+00 -2.2361644162415057e+00 6 -3 3
48 15 2 4.1699999999999998e-01 -4.1900823493998303e+00 -1.8168633199255151e+00 -3.7446004962120512e+00 8 -4 6
1044 347 2 4.1699999999999998e-01 -8.3021654753293816e-01 -3.6225667662208139e+00 -1.4833091050339746e+00 11 -5 -6
579 192 2 4.1699999999999998e-01 -7.5953464494045884e+00 -7.8046816577495619e+00 -7.3741332663878723e-01 11 -3 1
283 94 2 4.1699999999999998e-01 -1.0927754709484619e+01 -1.5137784652179587e+00 -3.8636720778416294e+00 11 0 -2
310 103 2 4.1699999999999998e-01 -3.5609972205643841e+00 -7.9996830168663990e-01 -1.0719200021565829e+00 16 -2 2
578 192 3 -8.3399999999999996e-01 -8.1434870129977632e+00 -7.0374827957851753e+00 -9.0233655072284868e-01 11 -3 1
61 20 2 4.1699999999999998e-01 -3.1362170782383387e+00 -3.5078526342482288e+00 -1.0048624247387448e+00 7 -2 9
62 20 3 -8.3399999999999996e-01 -2.6633758050531355e+00 -4.2936561867651948e+00 -1.2790478664032747e+00 7 -2 9
311 103 3 -8.3399999999999996e-01 -3.3065803825047713e+00 -1.5797745322756800e+00 -1.5652952006167364e+00 16 -2 2
63 20 2 4.1699999999999998e-01 -2.6972164816007300e+00 -4.8721851388130659e+00 -5.1720091454645356e-01 7 -2 9
197 65 3 -8.3399999999999996e-01 -7.7066218899107479e+00 -6.0907249136751851e-01 -3.6331317579586662e+00 17 -11 4
312 103 2 4.1699999999999998e-01 -2.3519817603005535e+00 -1.5307291867600767e+00 -1.6161706017323674e+00 16 -2 2
196 65 2 4.1699999999999998e-01 -7.6473658338870294e+00 -1.2034844591246063e-01 -4.4540346656248921e+00 17 -11 4
773 257 3 -8.3399999999999996e-01 -1.0227141278952876e+01 -1.4858095695282714e-01 -2.3334136193733972e+00 4 -1 4
328 109 2 4.1699999999999998e-01 -1.1260194599576092e+00 -6.3685372288553177e+00 -5.5410381065329934e+00 13 -3 6
774 257 2 4.1699999999999998e-01 -9.9760946708862015e+00 -1.0854401417953596e-01 -1.4105931586952742e+00 4 -1 4
117 38 2 4.1699999999999998e-01 -8.3655071234876601e+00 -1.0623740848063283e+01 -4.5860407105330259e+00 11 -1 2
41 13 3 -8.3399999999999996e-01 -6.6928071994460607e+00 -6.5507117341602124e+00 -5.5883547247055434e+00 12 1 2
968 322 3 -8.3399999999999996e-01 -9.2644111243838090e+00 -6.2432149955003640e+00 1.6334106552855552e+00 11 -6 -4
969 322 2 4.1699999999999998e-01 -8.4269323809442334e+00 -6.5822795710424344e+00 1.9495052331972662e+00 11 -6 -4
348 115 2 4.1699999999999998e-01 -1.1120973728418333e+01 -6.2410939589443819e+00 2.1359405187207834e+00 10 -6 -5
850 283 2 4.1699999999999998e-01 -6.3299830593865947e+00 -1.0506201661005010e+01 3.9545665584975573e+00 19 1 3
967 322 2 4.1699999999999998e-01 -9.2739963249789383e+00 -6.4587704181623042e+00 7.0083940240236764e-01 11 -6 -4
240 79 2 4.1699999999999998e-01 -4.8369425467553668e+00 -7.9873808735037883e+00 1.6193732908792260e+00 12 -2 0
854 284 3 -8.3399999999999996e-01 -6.2477562142647685e+00 -4.9470136533217541e+00 1.7127629185890285e+00 12 -6 0
851 283 3 -8.3399999999999996e-01 -6.7137842942777937e+00 -1.0321069352533634e+01 3.0974385654344605e+00 19 1 3
965 321 3 -8.3399999999999996e-01 -6.3372583798760704e+00 -9.0104193677713766e+00 2.6754591814477813e-01 10 -1 8
302 100 3 -8.3399999999999996e-01 -7.1020527745377908e+00 -7.2302603134469488e+00 3.1178965546465669e+00 12 5 0
301 100 2 4.1699999999999998e-01 -6.7644738601391063e+00 -8.0951177386593880e+00 3.3509353945824270e+00 12 5 0
966 321 2 4.1699999999999998e-01 -6.6341635097990181e+00 -9.6921203393256441e+00 8.7035745737057191e-01 10 -1 8
853 284 2 4.1699999999999998e-01 -5.6198553394062216e+00 -4.6874595422773906e+00 2.3869681800644535e+00 12 -6 0
37 12 2 4.1699999999999998e-01 -2.2198159264612531e+00 -3.6909641601332845e+00 1.5076061056160821e+00 13 3 2
303 100 2 4.1699999999999998e-01 -7.3566716836528130e+00 -6.8388712864201926e+00 3.9535021454446166e+00 12 5 0
501 166 2 4.1699999999999998e-01 -2.9090353642949616e+00 -1.0109448194080343e+01 4.3478542459804483e+00 14 -5 -3
499 166 2 4.1699999999999998e-01 -2.7311651249762043e+00 -9.6264797437113891e+00 2.9241115672437541e+00 14 -5 -3
945 314 2 4.1699999999999998e-01 -3.4690342621838939e+00 -1.0298589515744888e+01 8.1334550483851231e-01 4 2 6
809 269 3 -8.3399999999999996e-01 -7.2917589903255031e+00 -5.5136039373479129e-01 2.7139915955086149e+00 13 0 -1
239 79 3 -8.3399999999999996e-01 -4.1072163787346021e+00 -7.5093727068957925e+00 2.0134030676876264e+00 12 -2 0
156 51 2 4.1699999999999998e-01 -8.5942635431552077e+00 -2.8046083719767978e+00 1.1489940242406362e+00 10 -4 4
883 294 2 4.1699999999999998e-01 -8.9551347436779061e-01 -8.7925009042487865e+00 1.3745676924894141e+00 9 -6 3
500 166 3 -8.3399999999999996e-01 -3.0518473140569196e+00 -9.3502344497872283e+00 3.7826549500217936e+00 14 -5 -3
238 79 2 4.1699999999999998e-01 -3.7646323712125573e+00 -8.1027454602684408e+00 2.6817470377225057e+00 12 -2 0
88 29 2 4.1699999999999998e-01 -1.3105401016833227e+00 -6.5235694648016143e+00 1.4235106344173634e+00 5 -3 -4
89 29 3 -8.3399999999999996e-01 -2.0093563201206006e+00 -5.9100083041388460e+00 1.1966964423137121e+00 5 -3 -4
944 314 3 -8.3399999999999996e-01 -2.6527612379174297e+00 -1.0340737572570069e+01 1.3115639513211104e+00 4 2 6
90 29 2 4.1699999999999998e-01 -2.8155156296646364e+00 -6.3610493171090345e+00 1.4475396479313218e+00 5 -3 -4
885 294 2 4.1699999999999998e-01 -6.6061614064349072e-02 -8.3289248241392766e+00 2.5531463044924134e+00 9 -6 3
382 127 2 4.1699999999999998e-01 -6.8373007299741220e+00 -6.0177336903774581e-01 1.0137934324917985e+00 6 -4 1
855 284 2 4.1699999999999998e-01 -6.4712076410930797e+00 -5.8523669743211491e+00 1.9287622778988638e+00 12 -6 0
155 51 3 -8.3399999999999996e-01 -8.9508652751044551e+00 -3.5527944528649229e+00 6.7013587022982968e-01 10 -4 4
808 269 2 4.1699999999999998e-01 -6.6237099184536703e+00 -1.1857679686380340e+00 2.9737626951647176e+00 13 0 -1
884 294 3 -8.3399999999999996e-01 -3.9223451997767000e-01 -8.0456904610100803e+00 1.6989582914116088e+00 9 -6 3
897 298 2 4.1699999999999998e-01 -9.6506747277059368e+00 -5.0460448536227176e+00 3.2022426375572586e+00 1 -1 -2
154 51 2 4.1699999999999998e-01 -8.2870280976800093e+00 -4.2359764935553406e+00 7.6348091605344592e-01 10 -4 4
895 298 2 4.1699999999999998e-01 -1.1110545964904402e+01 -5.2033601765790785e+00 3.5708154721143099e+00 1 -1 -2
896 298 3 -8.3399999999999996e-01 -1.0300098016646501e+01 -4.7791858040502717e+00 3.8527652056513979e+00 1 -1 -2
852 283 2 4.1699999999999998e-01 -6.9985092626367296e+00 -1.1175208959490982e+01 2.7724319184124742e+00 19 1 3
165 54 2 4.1699999999999998e-01 -1.0560617201039006e+01 -1.0851434306404375e+00 1.7677810553242193e+00 16 2 2
164 54 3 -8.3399999999999996e-01 -1.0226827800778954e+01 -9.7344349349216941e-01 2.6579274569222058e+00 16 2 2
400 133 2 4.1699999999999998e-01 -4.8790635616001161e+00 -4.1902607800969518e+00 4.8050981038941121e+00 14 -6 -6
163 54 2 4.1699999999999998e-01 -9.2947112631760724e+00 -7.8836960052451488e-01 2.5432484776087136e+00 16 2 2
258 85 2 4.1699999999999998e-01 -7.0554885599687900e-01 -1.7584273692588681e-01 1.5699789665507922e+00 12 -1 1
951 316 2 4.1699999999999998e-01 -2.1420661682639999e+00 -1.0705352813996836e+00 5.1247535980044621e+00 15 -7 -3
257 85 3 -8.3399999999999996e-01 -6.3494873473075586e-01 -1.0970157769422926e+00 1.8203935674001155e+00 12 -1 1
38 12 3 -8.3399999999999996e-01 -2.5618310020683044e+00 -2.8574673457617212e+00 1.1844297774694752e+00 13 3 2
384 127 2 4.1699999999999998e-01 -5.6828929776330490e+00 -6.1614169992008883e-01 3.4469259893231907e-02 6 -4 1
429 142 2 4.1699999999999998e-01 -4.1664960704956195e+00 -7.2094471130347415e-01 1.3205801423095966e+00 0 -1 -5
383 127 3 -8.3399999999999996e-01 -6.6298685919331168e+00 -7.4411485970283842e-01 9.0236906622900293e-02 6 -4 1
166 55 2 4.1699999999999998e-01 -4.2094066107741090e+00 -1.3291959492507512e+00 3.5945141419249751e+00 10 -4 2
950 316 3 -8.3399999999999996e-01 -1.2952357110533228e+00 -1.2709077245906588e+00 4.7260827820143287e+00 15 -7 -3
999 332 2 4.1699999999999998e-01 -2.8173619456471908e+00 -7.7570037672232948e+00 5.5911890847105905e+00 16 -6 1
139 46 2 4.1699999999999998e-01 -1.7071130321941439e+00 -3.0480860991586773e+00 4.2564804295762091e+00 8 1 -2
168 55 2 4.1699999999999998e-01 -4.5795861450602207e+00 -2.6558292389050173e+00 2.9661915015379758e+00 10 -4 2
140 46 3 -8.3399999999999996e-01 -1.6460497140119177e+00 -3.9787272776298330e+00 4.0410231412347812e+00 8 1 -2
256 85 2 4.1699999999999998e-01 -8.5443040193816522e-01 -1.1099590949178637e+00 2.7520121179979373e+00 12 -1 1
167 55 3 -8.3399999999999996e-01 -4.7321554001286685e+00 -1.7139087413102434e+00 2.8909694784377553e+00 10 -4 2
949 316 2 4.1699999999999998e-01 -6.5700281767986723e-01 -8.1997083882267319e-01 5.2788565774618146e+00 15 -7 -3
1046 348 3 -8.3399999999999996e-01 -4.0351537427393476e+00 -4.9698745533635602e+00 3.4542020792422168e+00 2 -5 8
141 46 2 4.1699999999999998e-01 -8.6550603349765964e-01 -4.0470571547125855e+00 3.4911729620562362e+00 8 1 -2
1047 348 2 4.1699999999999998e-01 -4.0387668288548246e+00 -5.8985987929984578e+00 3.2224513708974314e+00 2 -5 8
1045 348 2 4.1699999999999998e-01 -3.1078853860731446e+00 -4.7350576813012246e+00 3.4899821292745923e+00 2 -5 8
39 12 2 4.1699999999999998e-01 -1.8708948456619598e+00 -2.2236929309253597e+00 1.3772394733684745e+00 13 3 2
679 226 2 4.1699999999999998e-01 -4.9928018408947619e+00 -1.0600563071209988e+01 5.5846360354406261e+00 11 1 2
754 251 2 4.1699999999999998e-01 -1.0661644487725237e+01 -3.8718939545183559e+00 1.7814460369354634e-02 14 -2 -2
243 80 2 4.1699999999999998e-01 -6.5062589090877774e+00 -7.7850733697071801e+00 7.1116624974623353e+00 11 -2 5
242 80 3 -8.3399999999999996e-01 -6.1656613847315347e+00 -8.5933281820333143e+00 7.4949104374107822e+00 11 -2 5
241 80 2 4.1699999999999998e-01 -6.7847015687643921e+00 -8.8075152177419387e+00 8.1928759969785876e+00 11 -2 5
402 133 2 4.1699999999999998e-01 -4.6246681673627128e+00 -4.0299365582160602e+00 6.2888375223903292e+00 14 -6 -6
812 270 3 -8.3399999999999996e-01 -7.6639327970430600e+00 -9.2451808239235156e+00 9.8638044841818111e+00 11 -7 -7
813 270 2 4.1699999999999998e-01 -8.3646045236186666e+00 -9.8625632616591741e+00 9.6536856809814555e+00 11 -7 -7
606 201 2 4.1699999999999998e-01 -1.0046544531523718e+01 -4.9419246343267016e+00 5.7214285466612917e+00 10 -7 3
811 270 2 4.1699999999999998e-01 -8.0100995626174019e+00 -8.7276629766780207e+00 1.0590844405908703e+01 11 -7 -7
378 125 2 4.1699999999999998e-01 -1.0513939024551291e+01 -7.3881495794632617e+00 9.3231465339240618e+00 7 1 9
53 17 3 -8.3399999999999996e-01 -7.1631134953836293e+00 -6.2231340343773143e+00 6.4972899268359239e+00 7 3 8
52 17 2 4.1699999999999998e-01 -6.5560416519002116e+00 -5.4846889009848914e+00 6.5463499819597768e+00 7 3 8
376 125 2 4.1699999999999998e-01 -9.8263381925200974e+00 -6.4185574122806273e+00 8.3855770138319290e+00 7 1 9
377 125 3 -8.3399999999999996e-01 -9.8296226185067521e+00 -6.7194729029487457e+00 9.2942484351378436e+00 7 1 9
54 17 2 4.1699999999999998e-01 -8.0127089390614739e+00 -5.8515668791718767e+00 6.7344770780599585e+00 7 3 8
665 221 3 -8.3399999999999996e-01 -8.9595008678378214e+00 -4.1807053798144151e+00 9.8278311782153960e+00 9 -7 -1
681 226 2 4.1699999999999998e-01 -6.1641780442400131e+00 -1.0137124086097600e+01 6.4241958883429238e+00 11 1 2
816 271 2 4.1699999999999998e-01 -1.5052136751119018e+00 -3.6653783942287976e+00 7.9600152974339355e+00 13 -1 5
352 117 2 4.1699999999999998e-01 -4.1831422364997453e+00 -8.0269428647910406e+00 9.4285495721722494e+00 7 -3 5
1061 353 3 -8.3399999999999996e-01 -1.6755233928554230e+00 -9.5150845530214436e+00 1.0128789358857484e+01 11 -2 1
354 117 2 4.1699999999999998e-01 -4.1463471231737321e+00 -8.8053415717161432e+00 8.1305766255724148e+00 7 -3 5
1060 353 2 4.1699999999999998e-01 -2.3713152529848749e+00 -9.0281128004931777e+00 9.6872730626471135e+00 11 -2 1
51 16 2 4.1699999999999998e-01 -3.0123716917679921e-01 -1.5523728913238877e+00 8.9953990566264270e+00 4 -5 -2
353 117 3 -8.3399999999999996e-01 -3.5837724153974895e+00 -8.3449809066663843e+00 8.7533803955526945e+00 7 -3 5
393 130 2 4.1699999999999998e-01 -3.4224491335166265e+00 -5.6037636744948296e+00 9.9563109346200438e+00 13 -1 3
304 101 2 4.1699999999999998e-01 -9.2339263574352479e+00 -7.1058096131523056e+00 1.1005037664870963e+01 16 6 3
266 88 3 -8.3399999999999996e-01 -7.4359018183141368e+00 -5.9980797465970070e-01 6.5437438151877902e+00 7 3 4
997 332 2 4.1699999999999998e-01 -2.6784290865930220e+00 -7.6955268692817151e+00 7.0974453007939591e+00 16 -6 1
265 88 2 4.1699999999999998e-01 -6.8576682331438352e+00 -1.3005063695574730e+00 6.2422252971227667e+00 7 3 4
998 332 3 -8.3399999999999996e-01 -2.4132883093138666e+00 -7.2479592120509562e+00 6.2939350284660822e+00 16 -6 1
664 221 2 4.1699999999999998e-01 -9.4171418004226748e+00 -5.0182823173512991e+00 9.9004616584948959e+00 9 -7 -1
666 221 2 4.1699999999999998e-01 -9.1355974264737458e+00 -3.7382167218614333e+00 1.0658159052693810e+01 9 -7 -1
680 226 3 -8.3399999999999996e-01 -5.9177028369350646e+00 -1.0777172458856665e+01 5.7564836627075540e+00 11 1 2
762 253 2 4.1699999999999998e-01 -9.3152049355412672e+00 -3.2358816456721762e-01 9.4423631924118521e+00 4 -9 2
298 99 2 4.1699999999999998e-01 -3.9868260286303752e+00 -1.2967065617403009e+00 6.8251578571626030e+00 8 2 5
775 258 2 4.1699999999999998e-01 -8.9114964295601737e+00 -2.7212975107337964e+00 8.0559140249187156e+00 9 -5 -1
912 303 2 4.1699999999999998e-01 -7.1472862820934049e+00 -4.4479208033449913e+00 8.7492509495021107e+00 12 3 3
975 324 2 4.1699999999999998e-01 -1.3273036174060486e+00 -4.8991127707242832e+00 1.1012782689772832e+01 10 1 7
911 303 3 -8.3399999999999996e-01 -6.2034848643795737e+00 -4.2969528315802865e+00 8.6973809468918883e+00 12 3 3
450 149 2 4.1699999999999998e-01 -1.1079106608322990e+01 -1.2988294492889771e+00 7.2370523104175835e+00 5 -2 1
910 303 2 4.1699999999999998e-01 -5.8125348664393357e+00 -5.1386497225406123e+00 8.9316559834110034e+00 12 3 3
760 253 2 4.1699999999999998e-01 -8.7833204694598432e+00 -8.9048914355377029e-01 1.0741463505203283e+01 4 -9 2
1034 344 3 -8.3399999999999996e-01 -5.0126461962662345e+00 -1.7404529845911210e+00 8.5943459211938400e+00 8 -2 1
391 130 2 4.1699999999999998e-01 -4.4281557431239857e+00 -5.8268371056334560e+00 1.1065651515633684e+01 13 -1 3
1033 344 2 4.1699999999999998e-01 -5.4840814721521012e+00 -2.5734195848691233e+00 8.6070272854908172e+00 8 -2 1
604 201 2 4.1699999999999998e-01 -9.7863907589664745e+00 -4.0503432335856733e+00 6.9169800712826426e+00 10 -7 3
463 154 2 4.1699999999999998e-01 -6.9803648667744209e+00 -3.2634833858363086e+00 1.0555900945423422e+01 11 -1 6
1035 344 2 4.1699999999999998e-01 -5.6905330114690900e+00 -1.0833780621873288e+00 8.4363156749379495e+00 8 -2 1
761 253 3 -8.3399999999999996e-01 -8.5008873364500008e+00 -5.1166351295762524e-01 9.9090166282675032e+00 4 -9 2
605 201 3 -8.3399999999999996e-01 -9.7829456546772313e+00 -4.9669815655615244e+00 6.6412868624623211e+00 10 -7 3
622 207 2 4.1699999999999998e-01 -6.9073843305209870e-01 -6.1093768492088145e+00 5.6840510098174715e+00 6 -11 -6
777 258 2 4.1699999999999998e-01 -8.7396856303697206e+00 -1.4722892215886869e+00 7.2178207593002295e+00 9 -5 -1
299 99 3 -8.3399999999999996e-01 -3.8344803236689220e+00 -8.1949261828621545e-01 6.0094966263857135e+00 8 2 5
776 258 3 -8.3399999999999996e-01 -9.3770815146832227e+00 -2.1489562709995784e+00 7.4460774096104121e+00 9 -5 -1
973 324 2 4.1699999999999998e-01 -1.4159740792428472e+00 -4.1329552414180419e+00 9.7100617836761298e+00 10 1 7
792 263 2 4.1699999999999998e-01 -3.8928647602062290e+00 -1.5340702605286349e+00 9.8876458320218372e+00 14 6 -1
814 271 2 4.1699999999999998e-01 -1.9783944136156606e-01 -3.4638805826545225e+00 7.2237335343139986e+00 13 -1 5
791 263 3 -8.3399999999999996e-01 -3.5113006096369288e+00 -1.1329705521045366e+00 1.0668529509847021e+01 14 6 -1
392 130 3 -8.3399999999999996e-01 -4.3059671039228276e+00 -5.9326001731193569e+00 1.0122184885932311e+01 13 -1 3
815 271 3 -8.3399999999999996e-01 -6.5244736187759322e-01 -3.2371061217576900e+00 8.0349985702986206e+00 13 -1 5
498 165 2 4.1699999999999998e-01 -3.1342279353626648e+00 -4.9721916684612735e+00 8.1813629789692808e+00 8 -2 2
497 165 3 -8.3399999999999996e-01 -2.9628615736897803e+00 -4.6395275985634772e+00 7.3003299148338510e+00 8 -2 2
496 165 2 4.1699999999999998e-01 -2.5386702141641528e+00 -5.3680883676761875e+00 6.8470033247301831e+00 8 -2 2
974 324 3 -8.3399999999999996e-01 -1.7519711432218550e+00 -4.9109804078721453e+00 1.0155076822580424e+01 10 1 7
1062 353 2 4.1699999999999998e-01 -9.0613040979543946e-01 -8.9496657304915850e+00 1.0060125729743598e+01 11 -2 1
401 133 3 -8.3399999999999996e-01 -5.2773955284778165e+00 -3.8588752584520334e+00 5.6099146203671584e+00 14 -6 -6
1017 338 2 4.1699999999999998e-01 -1.5797770107926823e-02 -6.5971958369973915e+00 1.0296321378547985e+01 10 3 1