LAMMPS (24 Jul 2017)
variable	rc equal 10.0
variable	skin equal 1.0
variable	seed equal 6384
variable	temp equal 300.0

units		real
atom_style	full

bond_style	harmonic
angle_style	harmonic


pair_style	hybrid/softcore lj/cut/coul/dsf/softcore 0.0 ${rc} lj/cut/coul/dsf 0.0 ${rc}
pair_style	hybrid/softcore lj/cut/coul/dsf/softcore 0.0 10 lj/cut/coul/dsf 0.0 ${rc}
pair_style	hybrid/softcore lj/cut/coul/dsf/softcore 0.0 10 lj/cut/coul/dsf 0.0 10
read_data	water_co2.lmp
  orthogonal box = (-11.0257 -11.0257 -11.0257) to (11.0257 11.0257 11.0257)
  1 by 1 by 1 MPI processor grid
  reading atoms ...
  1071 atoms
  scanning bonds ...
  2 = max bonds/atom
  scanning angles ...
  1 = max angles/atom
  reading bonds ...
  714 bonds
  reading angles ...
  357 angles
  2 = max # of 1-2 neighbors
  1 = max # of 1-3 neighbors
  1 = max # of 1-4 neighbors
  2 = max # of special neighbors

timestep 	1

neighbor	${skin} bin
neighbor	1 bin
neigh_modify	delay 0 every 1 check yes

delete_bonds    all bond 1
Neighbor list info ...
  update every 1 steps, delay 0 steps, check yes
  max neighbors/atom: 2000, page size: 100000
  master list distance cutoff = 11
  ghost atom cutoff = 11
  binsize = 5.5, bins = 5 5 5
  3 neighbor lists, perpetual/occasional/extra = 3 0 0
  (1) pair lj/cut/coul/dsf/softcore, perpetual, skip from (3)
      attributes: half, newton on
      pair build: skip
      stencil: none
      bin: none
  (2) pair lj/cut/coul/dsf, perpetual, skip from (3)
      attributes: half, newton on
      pair build: skip
      stencil: none
      bin: none
  (3) neighbor class addition, perpetual
      attributes: half, newton on
      pair build: half/bin/newton
      stencil: half/bin/3d/newton
      bin: standard
  714 total bonds, 2 turned on, 712 turned off
  357 total angles, 357 turned on, 0 turned off
  0 total dihedrals, 0 turned on, 0 turned off
  0 total impropers, 0 turned on, 0 turned off
delete_bonds    all angle 1
  714 total bonds, 2 turned on, 712 turned off
  357 total angles, 1 turned on, 356 turned off
  0 total dihedrals, 0 turned on, 0 turned off
  0 total impropers, 0 turned on, 0 turned off
delete_bonds    all bond 2
  714 total bonds, 0 turned on, 714 turned off
  357 total angles, 1 turned on, 356 turned off
  0 total dihedrals, 0 turned on, 0 turned off
  0 total impropers, 0 turned on, 0 turned off
delete_bonds    all angle 2
  714 total bonds, 0 turned on, 714 turned off
  357 total angles, 0 turned on, 357 turned off
  0 total dihedrals, 0 turned on, 0 turned off
  0 total impropers, 0 turned on, 0 turned off

pair_modify     pair lj/cut/coul/dsf/softcore alpha 0.5 n 1 p 1 lambda 1.0
pair_modify     pair lj/cut/coul/dsf/softcore set_grid 5 0.0 0.1 0.4 0.5 1.0

fix		1 all rigid/nvt/small molecule temp 300 300 100
357 rigid bodies with 1071 atoms
  1.16 = max distance from body owner to body atom
compute         E all softcore/grid

thermo		1

compute		eatom all pe/atom
compute		pe all reduce sum c_eatom

compute		vatom all stress/atom thermo_temp virial
compute		p all reduce sum c_vatom[1] c_vatom[2] c_vatom[3]
variable	press equal -(c_p[1]+c_p[2]+c_p[3])/(3*vol)
compute         press all pressure thermo_temp virial
variable	delta_e equal round(10000*(c_pe-c_thermo_pe))
variable	delta_p equal round(10000*(c_press-v_press))

thermo_style	custom step temp pe ecoul evdwl c_E[*] # c_pe v_delta_e c_press v_press v_delta_p

run		0
Lambda grid: (0; 0.1; 0.4; 0.5; 1)
Per MPI rank memory allocation (min/avg/max) = 20.55 | 20.55 | 20.55 Mbytes
Step Temp PotEng E_coul E_vdwl c_E[1] c_E[2] c_E[3] c_E[4] c_E[5] 
       0            0   -23629.802   -24627.778    997.97643            0   0.13869113   0.55476451   0.69345563    1.3869113 
Loop time of 2.14577e-06 on 1 procs for 0 steps with 1071 atoms

0.0% CPU use with 1 MPI tasks x no OpenMP threads

MPI task timing breakdown:
Section |  min time  |  avg time  |  max time  |%varavg| %total
---------------------------------------------------------------
Pair    | 0          | 0          | 0          |   0.0 |  0.00
Bond    | 0          | 0          | 0          |   0.0 |  0.00
Neigh   | 0          | 0          | 0          |   0.0 |  0.00
Comm    | 0          | 0          | 0          |   0.0 |  0.00
Output  | 0          | 0          | 0          |   0.0 |  0.00
Modify  | 0          | 0          | 0          |   0.0 |  0.00
Other   |            | 2.146e-06  |            |       |100.00

Nlocal:    1071 ave 1071 max 1071 min
Histogram: 1 0 0 0 0 0 0 0 0 0
Nghost:    7461 ave 7461 max 7461 min
Histogram: 1 0 0 0 0 0 0 0 0 0
Neighs:    1614 ave 1614 max 1614 min
Histogram: 1 0 0 0 0 0 0 0 0 0

Total # of neighbors = 1614
Ave neighs/atom = 1.507
Ave special neighs/atom = 2
Neighbor list builds = 0
Dangerous builds = 0
Total wall time: 0:00:00
