LAMMPS data file
# Generated by Playmol on 22-Aug-2017 at 15:36:40

4 atom types
2 bond types
2 angle types

1071 atoms
714 bonds
357 angles

-11.025738543471327 11.025738543471327 xlo xhi
-11.025738543471327 11.025738543471327 ylo yhi
-11.025738543471327 11.025738543471327 zlo zhi

Masses

1 1.008 # w_HW
2 15.9994 # w_OW
3 12.01 # s_C_co2
4 16.0 # s_O_co2

PairIJ Coeffs # lj/cut/coul/dsf

1 1 0.0000 0.0000 # w_HW w_HW
1 2  0.0000000000000000 1.5753500000000000 # w_HW w_OW
1 3  0.0000000000000000 1.3999999999999999 # w_HW s_C_co2
1 4  0.0000000000000000 1.5249999999999999 # w_HW s_O_co2
2 2 0.1520 3.1507 # w_OW w_OW
2 3  9.0307727390295897E-002 2.9753499999999997 # w_OW s_C_co2
2 4  0.15447442128973973 3.1003499999999997 # w_OW s_O_co2
3 3 0.0536545107 2.8 # s_C_co2 s_C_co2
3 4  9.1777854780312737E-002 2.9249999999999998 # s_C_co2 s_O_co2
4 4 0.1569891239 3.05 # s_O_co2 s_O_co2

Bond Coeffs # harmonic

1 553.00 0.9572 # w_HW w_OW
2 350.0 1.16 # s_C_co2 s_O_co2

Angle Coeffs # harmonic

1 100.00 104.52 # w_HW w_OW w_HW
2 49.95219885 180.0 # s_O_co2 s_C_co2 s_O_co2

Atoms

1 1 1 0.417 9.776821 -9.134910 -3.578829 # H1
2 1 2 -0.834 9.616425 -9.655316 -4.366029 # O
3 1 1 0.417 8.667108 -9.776539 -4.384277 # H2
4 2 1 0.417 3.614620 -9.755843 0.494652 # H1
5 2 2 -0.834 4.571505 -9.778256 0.504675 # O
6 2 1 0.417 4.802825 -9.736734 1.432575 # H2
7 3 1 0.417 -0.096944 -9.776144 -0.016048 # H1
8 3 2 -0.834 -1.053779 -9.753626 -0.002185 # O
9 3 1 0.417 -1.271493 -8.822009 0.028167 # H2
10 4 1 0.417 5.070673 9.474172 -9.775779 # H1
11 4 2 -0.834 5.840441 9.776018 -9.293515 # O
12 4 1 0.417 6.583343 9.413127 -9.775842 # H2
13 5 1 0.417 -4.789947 9.749337 0.030090 # H1
14 5 2 -0.834 -4.462961 9.413537 0.864687 # O
15 5 1 0.417 -5.059851 9.775712 1.519503 # H2
16 6 1 0.417 -5.795196 4.274495 -5.615499 # H1
17 6 2 -0.834 -6.591461 3.929650 -5.211425 # O
18 6 1 0.417 -6.570630 4.265448 -4.315301 # H2
19 7 1 0.417 1.791776 -5.204437 6.925861 # H1
20 7 2 -0.834 0.908823 -4.837069 6.885022 # O
21 7 1 0.417 0.998651 -3.955606 7.247217 # H2
22 8 1 0.417 -1.108876 -1.057045 0.636190 # H1
23 8 2 -0.834 -1.700559 -1.710070 0.262423 # O
24 8 1 0.417 -2.461789 -1.206773 -0.026460 # H2
25 9 1 0.417 8.777234 3.543072 2.245750 # H1
26 9 2 -0.834 9.618907 3.574214 2.700557 # O
27 9 1 0.417 9.775848 2.671347 2.977023 # H2
28 10 1 0.417 9.780793 -1.333121 9.461362 # H1
29 10 2 -0.834 9.533808 -0.463467 9.775896 # O
30 10 1 0.417 8.597440 -0.397498 9.588558 # H2
31 11 1 0.417 -7.849227 0.372186 -9.765741 # H1
32 11 2 -0.834 -8.558478 -0.253552 -9.618612 # O
33 11 1 0.417 -9.355438 0.275827 -9.647678 # H2
34 12 1 0.417 -9.746634 9.775744 -2.243057 # H1
35 12 2 -0.834 -9.775784 9.193131 -1.484148 # O
36 12 1 0.417 -9.683123 9.775921 -0.730489 # H2
37 13 1 0.417 -0.626250 -0.005557 4.956260 # H1
38 13 2 -0.834 -1.428252 -0.417526 4.634847 # O
39 13 1 0.417 -2.115945 0.223661 4.814262 # H2
40 14 1 0.417 -4.227844 -7.472821 4.829621 # H1
41 14 2 -0.834 -5.057473 -7.226680 5.238720 # O
42 14 1 0.417 -5.507133 -6.704639 4.574257 # H2
43 15 1 0.417 7.311959 -4.866699 -9.775760 # H1
44 15 2 -0.834 6.360471 -4.962348 -9.733871 # O
45 15 1 0.417 6.162503 -4.984652 -8.797632 # H2
46 16 1 0.417 6.431031 6.720287 3.159917 # H1
47 16 2 -0.834 7.074524 6.608233 2.460207 # O
48 16 1 0.417 7.191505 7.486825 2.098788 # H2
49 17 1 0.417 5.622975 -9.770093 -2.846224 # H1
50 17 2 -0.834 5.460859 -9.774263 -1.902861 # O
51 17 1 0.417 5.388969 -8.849209 -1.667619 # H2
52 18 1 0.417 -5.220963 -8.330870 2.697342 # H1
53 18 2 -0.834 -4.520988 -8.966480 2.846567 # O
54 18 1 0.417 -4.856199 -9.783655 2.477662 # H2
55 19 1 0.417 -5.785905 1.880149 -9.470309 # H1
56 19 2 -0.834 -4.937664 2.016329 -9.048202 # O
57 19 1 0.417 -4.873289 2.965151 -8.939462 # H2
58 20 1 0.417 9.776250 -9.768736 3.984178 # H1
59 20 2 -0.834 9.661156 -9.022678 3.395636 # O
60 20 1 0.417 8.743788 -9.068766 3.126297 # H2
61 21 1 0.417 6.511847 9.775839 -6.442795 # H1
62 21 2 -0.834 7.433498 9.561283 -6.586871 # O
63 21 1 0.417 7.588896 9.775816 -7.506685 # H2
64 22 1 0.417 3.859011 -4.148394 5.260810 # H1
65 22 2 -0.834 3.488088 -3.268863 5.189584 # O
66 22 1 0.417 2.567286 -3.413640 4.971880 # H2
67 23 1 0.417 -4.980528 0.661944 5.224123 # H1
68 23 2 -0.834 -5.145181 1.604628 5.202479 # O
69 23 1 0.417 -4.274114 2.000926 5.222991 # H2
70 24 1 0.417 8.626427 -9.628464 9.769736 # H1
71 24 2 -0.834 9.467625 -9.775063 9.337156 # O
72 24 1 0.417 9.767984 -8.899487 9.093471 # H2
73 25 1 0.417 9.748840 9.770679 3.042911 # H1
74 25 2 -0.834 8.862193 9.458373 3.223340 # O
75 25 1 0.417 8.341400 9.774954 2.485246 # H2
76 26 1 0.417 8.328542 -6.556953 -7.418869 # H1
77 26 2 -0.834 7.687905 -7.262427 -7.328746 # O
78 26 1 0.417 7.616060 -7.635064 -8.207502 # H2
79 27 1 0.417 9.386955 -3.410447 -2.733233 # H1
80 27 2 -0.834 9.326211 -3.375559 -1.778600 # O
81 27 1 0.417 8.387511 -3.417836 -1.596153 # H2
82 28 1 0.417 -1.154503 -3.531862 -9.745660 # H1
83 28 2 -0.834 -0.455310 -3.875180 -9.189339 # O
84 28 1 0.417 0.075372 -4.414122 -9.775982 # H2
85 29 1 0.417 5.847294 9.526342 2.631170 # H1
86 29 2 -0.834 6.055309 9.775914 3.531545 # O
87 29 1 0.417 5.872787 8.990064 4.046674 # H2
88 30 1 0.417 -2.098016 2.678117 3.382767 # H1
89 30 2 -0.834 -1.247231 2.582066 2.954781 # O
90 30 1 0.417 -0.720627 3.301338 3.303447 # H2
91 31 1 0.417 -3.003887 8.068646 3.015825 # H1
92 31 2 -0.834 -3.688469 7.622958 3.514765 # O
93 31 1 0.417 -4.504252 8.022060 3.212363 # H2
94 32 1 0.417 -1.081421 6.102040 2.523495 # H1
95 32 2 -0.834 -0.166470 6.377898 2.578254 # O
96 32 1 0.417 -0.206594 7.332624 2.634107 # H2
97 33 1 0.417 7.277936 2.197055 9.776318 # H1
98 33 2 -0.834 6.822075 1.356251 9.737964 # O
99 33 1 0.417 6.657576 1.214755 8.805681 # H2
100 34 1 0.417 -5.092357 0.925766 -6.420983 # H1
101 34 2 -0.834 -4.761632 1.813519 -6.557903 # O
102 34 1 0.417 -4.126042 1.944033 -5.854182 # H2
103 35 1 0.417 0.245184 -7.037245 5.900851 # H1
104 35 2 -0.834 0.967420 -7.546378 6.268808 # O
105 35 1 0.417 1.681084 -7.439722 5.639889 # H2
106 36 1 0.417 -9.769797 8.924881 -4.654132 # H1
107 36 2 -0.834 -9.396894 9.726221 -5.021596 # O
108 36 1 0.417 -9.759338 9.775937 -5.906127 # H2
109 37 1 0.417 9.776372 -7.125575 -5.128969 # H1
110 37 2 -0.834 8.858878 -7.398378 -5.125299 # O
111 37 1 0.417 8.372021 -6.600268 -4.919817 # H2
112 38 1 0.417 7.410940 -7.443910 9.775800 # H1
113 38 2 -0.834 6.590099 -7.780084 9.416023 # O
114 38 1 0.417 6.483459 -7.314981 8.586241 # H2
115 39 1 0.417 -9.775985 5.515808 -6.126196 # H1
116 39 2 -0.834 -9.395168 5.918842 -5.345956 # O
117 39 1 0.417 -8.548650 5.484672 -5.240433 # H2
118 40 1 0.417 -7.536048 -0.990640 9.776268 # H1
119 40 2 -0.834 -8.119801 -1.749233 9.777462 # O
120 40 1 0.417 -7.531799 -2.504534 9.775222 # H2
121 41 1 0.417 2.453331 9.774098 6.095086 # H1
122 41 2 -0.834 2.674634 9.775808 7.026350 # O
123 41 1 0.417 3.631641 9.775798 7.045600 # H2
124 42 1 0.417 6.338006 -6.652362 2.347854 # H1
125 42 2 -0.834 5.874811 -5.814804 2.334428 # O
126 42 1 0.417 5.088736 -5.966851 2.859023 # H2
127 43 1 0.417 2.177370 3.821721 1.630071 # H1
128 43 2 -0.834 3.109627 3.923553 1.821797 # O
129 43 1 0.417 3.436886 3.027836 1.904410 # H2
130 44 1 0.417 -9.697691 2.929656 -5.647251 # H1
131 44 2 -0.834 -9.644734 1.987974 -5.483966 # O
132 44 1 0.417 -9.775787 1.587623 -6.343487 # H2
133 45 1 0.417 -2.771582 7.095396 -7.672043 # H1
134 45 2 -0.834 -3.488251 6.489208 -7.484551 # O
135 45 1 0.417 -3.620156 6.558647 -6.539030 # H2
136 46 1 0.417 7.621913 4.739252 4.112221 # H1
137 46 2 -0.834 7.338989 4.946943 5.002755 # O
138 46 1 0.417 6.813446 4.192748 5.269635 # H2
139 47 1 0.417 9.775703 2.098155 9.741792 # H1
140 47 2 -0.834 9.739580 2.873964 9.182287 # O
141 47 1 0.417 9.504895 3.587247 9.775905 # H2
142 48 1 0.417 9.608054 -8.257744 -0.362305 # H1
143 48 2 -0.834 9.731166 -8.956280 0.280441 # O
144 48 1 0.417 9.529359 -9.760604 -0.197647 # H2
145 49 1 0.417 -5.630053 3.210380 -2.253243 # H1
146 49 2 -0.834 -5.924501 4.040314 -1.878089 # O
147 49 1 0.417 -6.215249 3.814543 -0.994502 # H2
148 50 1 0.417 1.679338 2.068678 -6.980946 # H1
149 50 2 -0.834 1.183288 2.882635 -6.893541 # O
150 50 1 0.417 0.625607 2.908482 -7.671073 # H2
151 51 1 0.417 -9.721475 7.146467 1.313920 # H1
152 51 2 -0.834 -9.775779 7.581078 0.462805 # O
153 51 1 0.417 -9.238544 7.041256 -0.117025 # H2
154 52 1 0.417 0.101813 -8.660725 -9.776798 # H1
155 52 2 -0.834 0.157440 -9.614525 -9.718478 # O
156 52 1 0.417 0.867041 -9.775963 -9.096678 # H2
157 53 1 0.417 7.580140 7.090293 -6.936397 # H1
158 53 2 -0.834 7.487108 6.922609 -5.998602 # O
159 53 1 0.417 6.541563 6.902510 -5.851045 # H2
160 54 1 0.417 6.132132 9.686151 6.909960 # H1
161 54 2 -0.834 5.908818 8.755500 6.894080 # O
162 54 1 0.417 6.751279 8.305444 6.956855 # H2
163 55 1 0.417 -6.164071 -1.037695 -0.726223 # H1
164 55 2 -0.834 -6.871908 -0.429489 -0.939028 # O
165 55 1 0.417 -6.531573 0.089251 -1.667940 # H2
166 56 1 0.417 -9.778541 -8.884962 -6.833037 # H1
167 56 2 -0.834 -9.435708 -9.777852 -6.871038 # O
168 56 1 0.417 -8.836859 -9.773410 -7.617759 # H2
169 57 1 0.417 -4.074625 9.457854 -3.781380 # H1
170 57 2 -0.834 -4.955661 9.749649 -3.547151 # O
171 57 1 0.417 -5.045858 9.521806 -2.621849 # H2
172 58 1 0.417 -2.190866 -8.677309 9.776613 # H1
173 58 2 -0.834 -2.004395 -9.509353 9.341682 # O
174 58 1 0.417 -1.153076 -9.776013 9.688641 # H2
175 59 1 0.417 -3.078159 8.942272 -6.015289 # H1
176 59 2 -0.834 -2.877355 9.777588 -6.437375 # O
177 59 1 0.417 -2.947389 9.595871 -7.374555 # H2
178 60 1 0.417 9.531790 -7.981792 -9.775946 # H1
179 60 2 -0.834 9.776687 -7.151156 -9.368145 # O
180 60 1 0.417 9.200525 -6.504578 -9.775829 # H2
181 61 1 0.417 0.953780 6.966345 -7.817480 # H1
182 61 2 -0.834 0.679759 6.638942 -6.960769 # O
183 61 1 0.417 -0.209163 6.313000 -7.101519 # H2
184 62 1 0.417 -9.732506 6.080544 3.740475 # H1
185 62 2 -0.834 -9.618479 6.020164 4.688939 # O
186 62 1 0.417 -9.775964 5.097963 4.891362 # H2
187 63 1 0.417 9.775790 0.053695 7.077992 # H1
188 63 2 -0.834 9.777308 0.946981 7.421896 # O
189 63 1 0.417 8.859499 1.127479 7.625070 # H2
190 64 1 0.417 -1.552299 9.566336 -1.633473 # H1
191 64 2 -0.834 -1.555603 9.775779 -0.699474 # O
192 64 1 0.417 -2.278078 9.260575 -0.340550 # H2
193 65 1 0.417 6.363203 -9.776574 -9.083032 # H1
194 65 2 -0.834 6.938347 -9.457061 -9.778267 # O
195 65 1 0.417 7.807734 -9.776010 -9.536048 # H2
196 66 1 0.417 -5.839052 -7.690986 -4.182774 # H1
197 66 2 -0.834 -5.313984 -6.890907 -4.162522 # O
198 66 1 0.417 -4.407951 -7.198933 -4.141168 # H2
199 67 1 0.417 -7.016894 7.638676 8.590587 # H1
200 67 2 -0.834 -7.583736 7.567163 9.358576 # O
201 67 1 0.417 -7.665208 6.625514 9.509873 # H2
202 68 1 0.417 9.780760 -2.944885 4.290947 # H1
203 68 2 -0.834 9.692244 -2.069351 4.667561 # O
204 68 1 0.417 9.775874 -2.204549 5.611467 # H2
205 69 1 0.417 1.252327 4.906635 6.858541 # H1
206 69 2 -0.834 0.455496 5.013856 6.339121 # O
207 69 1 0.417 0.448992 5.940182 6.098062 # H2
208 70 1 0.417 0.592586 -5.824852 -2.365296 # H1
209 70 2 -0.834 -0.343494 -5.651180 -2.266178 # O
210 70 1 0.417 -0.398771 -4.705737 -2.127201 # H2
211 71 1 0.417 9.081957 9.495327 -9.775900 # H1
212 71 2 -0.834 9.730743 9.776276 -9.130628 # O
213 71 1 0.417 9.775954 9.053064 -8.505205 # H2
214 72 1 0.417 5.647781 -0.883202 4.292224 # H1
215 72 2 -0.834 6.530452 -0.839512 3.924507 # O
216 72 1 0.417 6.394415 -0.801313 2.977794 # H2
217 73 1 0.417 -3.727069 -5.043429 5.140544 # H1
218 73 2 -0.834 -3.812632 -4.156666 4.790457 # O
219 73 1 0.417 -3.212572 -4.134002 4.045039 # H2
220 74 1 0.417 0.157686 -5.989529 -4.821636 # H1
221 74 2 -0.834 -0.112018 -5.077684 -4.711947 # O
222 74 1 0.417 0.708988 -4.593535 -4.623742 # H2
223 75 1 0.417 -1.260481 9.626038 -4.441154 # H1
224 75 2 -0.834 -0.321338 9.775740 -4.332379 # O
225 75 1 0.417 0.072340 8.908235 -4.425572 # H2
226 76 1 0.417 -2.188139 -7.958061 -5.004934 # H1
227 76 2 -0.834 -1.367906 -8.446455 -4.934781 # O
228 76 1 0.417 -1.625014 -9.363009 -5.035056 # H2
229 77 1 0.417 6.162771 -3.352278 7.204275 # H1
230 77 2 -0.834 5.634625 -4.150567 7.209580 # O
231 77 1 0.417 6.229281 -4.829633 7.528146 # H2
232 78 1 0.417 2.389174 -5.361052 -9.775762 # H1
233 78 2 -0.834 3.111130 -5.125870 -9.192922 # O
234 78 1 0.417 3.861001 -5.006622 -9.775764 # H2
235 79 1 0.417 2.666911 7.129148 3.272609 # H1
236 79 2 -0.834 3.524088 7.424428 2.965543 # O
237 79 1 0.417 3.974965 6.621583 2.704042 # H2
238 80 1 0.417 8.853323 -9.501658 6.440777 # H1
239 80 2 -0.834 8.140260 -9.796407 5.874300 # O
240 80 1 0.417 7.825071 -8.998249 5.450234 # H2
241 81 1 0.417 -2.719877 1.965803 7.298444 # H1
242 81 2 -0.834 -3.309717 2.710187 7.417659 # O
243 81 1 0.417 -4.101209 2.330505 7.799253 # H2
244 82 1 0.417 -8.265781 2.452336 -2.616558 # H1
245 82 2 -0.834 -9.019302 2.679874 -3.161227 # O
246 82 1 0.417 -9.775824 2.556482 -2.587920 # H2
247 83 1 0.417 5.975492 1.839641 -1.815658 # H1
248 83 2 -0.834 6.743397 1.392872 -2.171959 # O
249 83 1 0.417 6.499268 0.467385 -2.182357 # H2
250 84 1 0.417 -7.640151 -7.829900 5.274238 # H1
251 84 2 -0.834 -7.930134 -8.497067 5.896356 # O
252 84 1 0.417 -8.410002 -9.130439 5.362691 # H2
253 85 1 0.417 3.207319 6.750996 6.832127 # H1
254 85 2 -0.834 2.470782 7.319590 6.607526 # O
255 85 1 0.417 1.978259 7.407928 7.423522 # H2
256 86 1 0.417 -9.210528 5.631655 -2.834130 # H1
257 86 2 -0.834 -8.763286 6.469600 -2.952685 # O
258 86 1 0.417 -9.452767 7.125939 -2.852345 # H2
259 87 1 0.417 3.686577 -2.287783 2.590766 # H1
260 87 2 -0.834 4.616027 -2.505618 2.520749 # O
261 87 1 0.417 4.708029 -3.324274 3.008160 # H2
262 88 1 0.417 -1.606509 7.145864 -5.089593 # H1
263 88 2 -0.834 -1.471419 6.761819 -4.223283 # O
264 88 1 0.417 -2.143872 7.165268 -3.674404 # H2
265 89 1 0.417 -3.552629 -7.853783 0.356037 # H1
266 89 2 -0.834 -4.204007 -8.553694 0.401449 # O
267 89 1 0.417 -3.697280 -9.359843 0.303556 # H2
268 90 1 0.417 -7.075557 -1.050843 6.711103 # H1
269 90 2 -0.834 -7.393137 -1.664863 7.373186 # O
270 90 1 0.417 -6.787935 -2.404837 7.324184 # H2
271 91 1 0.417 -3.550963 3.444123 -3.911200 # H1
272 91 2 -0.834 -3.948841 4.314494 -3.930710 # O
273 91 1 0.417 -3.205818 4.917850 -3.941192 # H2
274 92 1 0.417 -4.540585 -7.322422 -9.772163 # H1
275 92 2 -0.834 -4.317555 -6.391572 -9.775002 # O
276 92 1 0.417 -5.162759 -5.942291 -9.778080 # H2
277 93 1 0.417 -6.107752 5.612153 7.302958 # H1
278 93 2 -0.834 -6.373144 4.692609 7.287487 # O
279 93 1 0.417 -5.572455 4.215367 7.069846 # H2
280 94 1 0.417 1.554827 4.962422 -4.934696 # H1
281 94 2 -0.834 1.167017 4.634559 -4.123314 # O
282 94 1 0.417 1.911702 4.508104 -3.535364 # H2
283 95 1 0.417 9.775839 3.771466 5.221867 # H1
284 95 2 -0.834 9.677136 3.108197 5.904922 # O
285 95 1 0.417 9.106855 2.445474 5.515295 # H2
286 96 1 0.417 9.775934 7.296774 4.606995 # H1
287 96 2 -0.834 8.955537 6.806009 4.558723 # O
288 96 1 0.417 8.273216 7.467019 4.675928 # H2
289 97 1 0.417 -9.775871 -4.018987 -6.135750 # H1
290 97 2 -0.834 -9.516564 -4.086359 -7.054692 # O
291 97 1 0.417 -8.560398 -4.045188 -7.037878 # H2
292 98 1 0.417 9.776004 8.266340 -5.226273 # H1
293 98 2 -0.834 9.746986 8.803666 -6.017898 # O
294 98 1 0.417 9.775365 9.705116 -5.697250 # H2
295 99 1 0.417 8.046270 -5.517635 0.920078 # H1
296 99 2 -0.834 8.550438 -6.331258 0.928011 # O
297 99 1 0.417 9.463854 -6.047246 0.963225 # H2
298 100 1 0.417 2.453652 -9.775920 3.689970 # H1
299 100 2 -0.834 2.504462 -9.747798 2.734533 # O
300 100 1 0.417 1.592595 -9.775714 2.444789 # H2
301 101 1 0.417 -5.456929 -9.558838 6.045711 # H1
302 101 2 -0.834 -5.236376 -9.775852 5.139900 # O
303 101 1 0.417 -6.067138 -9.712059 4.668734 # H2
304 102 1 0.417 4.162054 -0.983110 0.512029 # H1
305 102 2 -0.834 4.667796 -1.538191 -0.081555 # O
306 102 1 0.417 4.063374 -2.237881 -0.329225 # H2
307 103 1 0.417 9.608804 -6.333311 -2.763877 # H1
308 103 2 -0.834 9.720902 -6.180393 -1.825643 # O
309 103 1 0.417 8.851573 -5.922639 -1.518949 # H2
310 104 1 0.417 -6.381095 9.776076 5.937412 # H1
311 104 2 -0.834 -6.558120 9.251893 6.718518 # O
312 104 1 0.417 -7.323606 9.665980 7.117008 # H2
313 105 1 0.417 1.994323 -2.521151 -6.785095 # H1
314 105 2 -0.834 2.484967 -1.863341 -6.292362 # O
315 105 1 0.417 1.983950 -1.055630 -6.405574 # H2
316 106 1 0.417 -6.091590 7.019280 0.009483 # H1
317 106 2 -0.834 -6.620884 6.655836 -0.700438 # O
318 106 1 0.417 -6.747396 7.387634 -1.304340 # H2
319 107 1 0.417 -2.096636 -9.575092 2.492529 # H1
320 107 2 -0.834 -1.156708 -9.756086 2.495641 # O
321 107 1 0.417 -0.745822 -8.891912 2.471013 # H2
322 108 1 0.417 2.025744 -2.850180 -9.775742 # H1
323 108 2 -0.834 2.446466 -2.192665 -9.221757 # O
324 108 1 0.417 2.506106 -1.414510 -9.775968 # H2
325 109 1 0.417 -8.827053 -2.862662 5.648619 # H1
326 109 2 -0.834 -9.752497 -3.081623 5.757434 # O
327 109 1 0.417 -9.760432 -4.028858 5.894962 # H2
328 110 1 0.417 -9.776005 7.074537 7.001129 # H1
329 110 2 -0.834 -8.830378 7.202501 6.925981 # O
330 110 1 0.417 -8.470404 6.316304 6.889842 # H2
331 111 1 0.417 3.061373 0.350214 -1.882661 # H1
332 111 2 -0.834 3.997127 0.202362 -1.745779 # O
333 111 1 0.417 4.211329 -0.530313 -2.323306 # H2
334 112 1 0.417 -2.626388 -0.681579 -9.227697 # H1
335 112 2 -0.834 -2.593193 0.133307 -9.728786 # O
336 112 1 0.417 -1.661616 0.348142 -9.776134 # H2
337 113 1 0.417 -9.774867 9.774942 9.706477 # H1
338 113 2 -0.834 -9.079762 9.603897 9.071021 # O
339 113 1 0.417 -9.530413 9.215673 8.321068 # H2
340 114 1 0.417 6.050573 1.311249 0.626690 # H1
341 114 2 -0.834 6.215841 0.426458 0.301016 # O
342 114 1 0.417 7.163489 0.315570 0.377820 # H2
343 115 1 0.417 -7.569566 -7.682660 -0.398914 # H1
344 115 2 -0.834 -6.631121 -7.506542 -0.466260 # O
345 115 1 0.417 -6.362368 -7.292617 0.427183 # H2
346 116 1 0.417 -6.818418 -2.117727 -6.273801 # H1
347 116 2 -0.834 -7.241730 -1.531835 -6.901311 # O
348 116 1 0.417 -7.255482 -0.680753 -6.463473 # H2
349 117 1 0.417 2.138950 6.082305 -0.065034 # H1
350 117 2 -0.834 2.663014 6.701569 0.443000 # O
351 117 1 0.417 2.042750 7.381390 0.706339 # H2
352 118 1 0.417 2.370988 -9.775552 6.201963 # H1
353 118 2 -0.834 3.217431 -9.768988 6.648868 # O
354 118 1 0.417 3.402677 -8.841867 6.798408 # H2
355 119 1 0.417 4.680395 -8.164955 -4.941980 # H1
356 119 2 -0.834 5.339354 -7.795811 -4.353987 # O
357 119 1 0.417 6.037171 -7.493385 -4.935211 # H2
358 120 1 0.417 -0.390304 -2.382954 -4.230691 # H1
359 120 2 -0.834 -0.785658 -2.635664 -5.064995 # O
360 120 1 0.417 -1.601500 -3.072965 -4.821270 # H2
361 121 1 0.417 1.968892 3.475345 -1.018179 # H1
362 121 2 -0.834 1.851733 2.607418 -0.631904 # O
363 121 1 0.417 2.735886 2.330327 -0.391643 # H2
364 122 1 0.417 -3.756690 -6.725705 9.740653 # H1
365 122 2 -0.834 -3.610300 -5.779777 9.735791 # O
366 122 1 0.417 -2.657921 -5.684371 9.725603 # H2
367 123 1 0.417 2.205157 -0.938701 5.423379 # H1
368 123 2 -0.834 2.947553 -0.684455 4.875255 # O
369 123 1 0.417 3.288850 0.109550 5.286721 # H2
370 124 1 0.417 -0.114464 8.435916 -9.760370 # H1
371 124 2 -0.834 0.051567 9.378592 -9.765650 # O
372 124 1 0.417 -0.818732 9.775744 -9.732748 # H2
373 125 1 0.417 -4.502689 6.967323 -2.870228 # H1
374 125 2 -0.834 -4.792278 6.219051 -2.348251 # O
375 125 1 0.417 -4.200663 6.207948 -1.595855 # H2
376 126 1 0.417 -9.775829 -0.950390 7.063877 # H1
377 126 2 -0.834 -9.777240 -1.222963 7.981446 # O
378 126 1 0.417 -9.775781 -0.403040 8.475367 # H2
379 127 1 0.417 7.203137 -4.379679 9.785489 # H1
380 127 2 -0.834 7.243164 -3.482319 9.454771 # O
381 127 1 0.417 8.095105 -3.157097 9.745733 # H2
382 128 1 0.417 -9.439271 -7.359667 9.748021 # H1
383 128 2 -0.834 -9.778246 -6.465452 9.706708 # O
384 128 1 0.417 -9.001249 -5.910798 9.776472 # H2
385 129 1 0.417 4.027827 -8.369044 9.775738 # H1
386 129 2 -0.834 4.533623 -9.176373 9.682889 # O
387 129 1 0.417 3.946413 -9.775841 9.222394 # H2
388 130 1 0.417 4.520225 8.389397 8.940465 # H1
389 130 2 -0.834 4.604749 8.849115 9.775778 # O
390 130 1 0.417 4.531604 9.775959 9.548092 # H2
391 131 1 0.417 4.449498 -7.304710 0.846284 # H1
392 131 2 -0.834 4.155361 -7.379426 -0.061534 # O
393 131 1 0.417 3.201751 -7.313802 -0.011003 # H2
394 132 1 0.417 -7.723436 8.663737 2.939660 # H1
395 132 2 -0.834 -7.577667 9.556707 3.252047 # O
396 132 1 0.417 -6.641253 9.592853 3.447121 # H2
397 133 1 0.417 -1.103828 3.623957 -4.389636 # H1
398 133 2 -0.834 -0.962412 2.896612 -4.995608 # O
399 133 1 0.417 -1.519868 2.193934 -4.661367 # H2
400 134 1 0.417 -0.360875 7.015365 0.063692 # H1
401 134 2 -0.834 -1.306669 7.024061 0.210759 # O
402 134 1 0.417 -1.685141 6.849318 -0.650900 # H2
403 135 1 0.417 7.281069 8.615156 -0.299822 # H1
404 135 2 -0.834 7.307467 8.926464 -1.204599 # O
405 135 1 0.417 6.829171 9.755417 -1.187227 # H2
406 136 1 0.417 0.540531 9.776012 -7.088825 # H1
407 136 2 -0.834 -0.415077 9.720890 -7.086208 # O
408 136 1 0.417 -0.601306 8.781981 -7.086559 # H2
409 137 1 0.417 2.585826 -6.808267 -7.271608 # H1
410 137 2 -0.834 2.599784 -7.612279 -7.790840 # O
411 137 1 0.417 1.831310 -7.545328 -8.357583 # H2
412 138 1 0.417 4.451082 0.844514 7.690383 # H1
413 138 2 -0.834 4.095702 -0.043256 7.647939 # O
414 138 1 0.417 4.770750 -0.550694 7.197330 # H2
415 139 1 0.417 8.525458 -1.890481 -7.305365 # H1
416 139 2 -0.834 7.630198 -1.989541 -7.629292 # O
417 139 1 0.417 7.572982 -2.905848 -7.900105 # H2
418 140 1 0.417 2.590969 -7.258844 2.517360 # H1
419 140 2 -0.834 1.882399 -6.887040 3.042643 # O
420 140 1 0.417 2.295605 -6.178183 3.535608 # H2
421 141 1 0.417 7.038469 -1.173350 6.349034 # H1
422 141 2 -0.834 7.451558 -0.885396 7.163081 # O
423 141 1 0.417 7.971683 -1.637041 7.447214 # H2
424 142 1 0.417 4.671877 1.306191 3.582461 # H1
425 142 2 -0.834 4.659902 0.989998 2.679073 # O
426 142 1 0.417 4.077085 0.230926 2.698198 # H2
427 143 1 0.417 9.775780 9.768280 -3.198073 # H1
428 143 2 -0.834 9.658984 9.381773 -2.330200 # O
429 143 1 0.417 9.700496 8.437362 -2.480519 # H2
430 144 1 0.417 2.192194 1.622883 3.602722 # H1
431 144 2 -0.834 2.108376 2.502402 3.971032 # O
432 144 1 0.417 2.558922 2.453457 4.814148 # H2
433 145 1 0.417 -0.858245 -3.678175 9.017679 # H1
434 145 2 -0.834 -0.904994 -2.893708 8.471183 # O
435 145 1 0.417 -1.025131 -2.175351 9.092281 # H2
436 146 1 0.417 -3.096433 8.745390 -9.720821 # H1
437 146 2 -0.834 -3.872403 8.187672 -9.776060 # O
438 146 1 0.417 -4.425817 8.473793 -9.049355 # H2
439 147 1 0.417 7.441226 -4.809150 -3.445107 # H1
440 147 2 -0.834 6.703544 -5.418575 -3.470776 # O
441 147 1 0.417 5.978629 -4.903140 -3.824410 # H2
442 148 1 0.417 -3.627334 -5.557368 -6.651346 # H1
443 148 2 -0.834 -2.822399 -6.049577 -6.489969 # O
444 148 1 0.417 -2.792219 -6.697667 -7.193745 # H2
445 149 1 0.417 -5.613325 -0.730893 -9.582173 # H1
446 149 2 -0.834 -5.770958 -0.522375 -8.661356 # O
447 149 1 0.417 -4.980105 -0.817080 -8.209766 # H2
448 150 1 0.417 -3.560796 -4.054079 -9.313407 # H1
449 150 2 -0.834 -4.269358 -3.607466 -9.776772 # O
450 150 1 0.417 -4.050768 -2.677895 -9.710824 # H2
451 151 1 0.417 -5.816700 -7.554680 7.597811 # H1
452 151 2 -0.834 -5.911685 -6.606755 7.504821 # O
453 151 1 0.417 -5.016548 -6.270475 7.548138 # H2
454 152 1 0.417 -0.148749 7.612063 9.776308 # H1
455 152 2 -0.834 -1.100871 7.638197 9.681379 # O
456 152 1 0.417 -1.253699 7.477753 8.750179 # H2
457 153 1 0.417 -1.688568 -3.499733 2.167823 # H1
458 153 2 -0.834 -1.077596 -2.807597 2.420593 # O
459 153 1 0.417 -1.223868 -2.689340 3.359130 # H2
460 154 1 0.417 5.618493 6.124718 6.490080 # H1
461 154 2 -0.834 5.425115 6.608869 5.687314 # O
462 154 1 0.417 5.049060 5.955363 5.097615 # H2
463 155 1 0.417 -0.349127 3.163405 0.415342 # H1
464 155 2 -0.834 -0.033577 4.064062 0.489354 # O
465 155 1 0.417 -0.829201 4.593190 0.546260 # H2
466 156 1 0.417 -3.595663 5.738576 1.717750 # H1
467 156 2 -0.834 -3.743780 4.973245 2.273233 # O
468 156 1 0.417 -4.636045 5.084088 2.601575 # H2
469 157 1 0.417 -9.775981 -7.461244 -8.887272 # H1
470 157 2 -0.834 -9.658562 -7.795424 -9.776523 # O
471 157 1 0.417 -9.772530 -8.742233 -9.694086 # H2
472 158 1 0.417 -8.313387 -6.532518 -7.082496 # H1
473 158 2 -0.834 -9.100383 -6.496845 -6.538807 # O
474 158 1 0.417 -8.777760 -6.283163 -5.663314 # H2
475 159 1 0.417 6.718153 -2.500650 0.976231 # H1
476 159 2 -0.834 6.771759 -3.336207 1.440131 # O
477 159 1 0.417 7.098674 -3.107140 2.310123 # H2
478 160 1 0.417 3.659764 -9.776138 -8.509919 # H1
479 160 2 -0.834 3.891170 -9.635675 -9.428043 # O
480 160 1 0.417 3.176555 -9.102856 -9.776842 # H2
481 161 1 0.417 5.154578 -2.146829 9.777666 # H1
482 161 2 -0.834 5.389571 -1.219027 9.763766 # O
483 161 1 0.417 6.242016 -1.193854 9.329098 # H2
484 162 1 0.417 -7.355916 2.257888 3.610501 # H1
485 162 2 -0.834 -7.568032 1.358604 3.360447 # O
486 162 1 0.417 -6.732939 0.893144 3.407354 # H2
487 163 1 0.417 5.249100 4.067070 3.277643 # H1
488 163 2 -0.834 5.695772 3.970312 2.436600 # O
489 163 1 0.417 5.462015 4.759829 1.948490 # H2
490 164 1 0.417 7.021458 1.720341 -4.634522 # H1
491 164 2 -0.834 7.244158 2.551688 -5.053446 # O
492 164 1 0.417 6.817115 3.215357 -4.511773 # H2
493 165 1 0.417 -1.390580 7.046935 4.817254 # H1
494 165 2 -0.834 -1.532638 7.409021 5.691866 # O
495 165 1 0.417 -2.387027 7.837270 5.638447 # H2
496 166 1 0.417 -9.775922 2.633853 -8.931872 # H1
497 166 2 -0.834 -9.459309 2.996726 -9.759103 # O
498 166 1 0.417 -8.527518 2.778294 -9.775980 # H2
499 167 1 0.417 8.733230 -9.775824 -7.213858 # H1
500 167 2 -0.834 9.676733 -9.635229 -7.293021 # O
501 167 1 0.417 9.775809 -8.683675 -7.324016 # H2
502 168 1 0.417 -1.456461 -7.884619 7.522379 # H1
503 168 2 -0.834 -2.392717 -8.017258 7.373843 # O
504 168 1 0.417 -2.719081 -7.155478 7.114898 # H2
505 169 1 0.417 -4.687038 -9.775747 -9.312358 # H1
506 169 2 -0.834 -4.665080 -9.437423 -8.417211 # O
507 169 1 0.417 -5.475184 -9.757001 -8.019929 # H2
508 170 1 0.417 0.070831 -5.219988 2.609329 # H1
509 170 2 -0.834 0.314645 -4.664524 3.349766 # O
510 170 1 0.417 1.002261 -4.094325 3.005834 # H2
511 171 1 0.417 -0.462412 -5.670688 -7.222364 # H1
512 171 2 -0.834 0.408983 -5.628193 -7.616188 # O
513 171 1 0.417 0.880420 -4.984862 -7.086939 # H2
514 172 1 0.417 -2.521811 2.202476 -8.327576 # H1
515 172 2 -0.834 -2.373543 2.945889 -8.912029 # O
516 172 1 0.417 -1.502807 2.792787 -9.278921 # H2
517 173 1 0.417 6.780500 1.378148 -7.611396 # H1
518 173 2 -0.834 7.137717 0.490180 -7.599543 # O
519 173 1 0.417 7.243927 0.286613 -6.670290 # H2
520 174 1 0.417 9.732336 6.095845 -9.776546 # H1
521 174 2 -0.834 9.304639 6.952178 -9.775522 # O
522 174 1 0.417 8.368446 6.752843 -9.769197 # H2
523 175 1 0.417 3.430266 3.373328 -5.763524 # H1
524 175 2 -0.834 4.375283 3.238058 -5.833359 # O
525 175 1 0.417 4.755955 4.090784 -5.623170 # H2
526 176 1 0.417 -8.501228 3.513561 6.712224 # H1
527 176 2 -0.834 -9.390987 3.758264 6.966549 # O
528 176 1 0.417 -9.776549 2.948211 7.300299 # H2
529 177 1 0.417 -5.593147 3.217575 9.614574 # H1
530 177 2 -0.834 -5.539479 4.173111 9.597180 # O
531 177 1 0.417 -6.432639 4.466944 9.776509 # H2
532 178 1 0.417 -8.055674 -1.789169 -4.112750 # H1
533 178 2 -0.834 -7.528674 -1.385447 -3.423177 # O
534 178 1 0.417 -7.472470 -2.054723 -2.741164 # H2
535 179 1 0.417 8.983943 -1.047838 -9.769942 # H1
536 179 2 -0.834 9.775739 -0.516910 -9.683882 # O
537 179 1 0.417 9.749087 -0.190272 -8.784533 # H2
538 180 1 0.417 2.142285 8.401710 -5.748835 # H1
539 180 2 -0.834 2.470038 7.546551 -5.470425 # O
540 180 1 0.417 2.050775 7.392882 -4.623763 # H2
541 181 1 0.417 6.210027 -7.053637 4.810929 # H1
542 181 2 -0.834 7.012758 -6.653886 5.145672 # O
543 181 1 0.417 6.949316 -6.747748 6.096144 # H2
544 182 1 0.417 3.423049 9.754060 -7.425609 # H1
545 182 2 -0.834 2.937549 9.186404 -8.024181 # O
546 182 1 0.417 2.633398 9.772542 -8.717122 # H2
547 183 1 0.417 7.824478 -2.137121 -4.212114 # H1
548 183 2 -0.834 7.459790 -2.422685 -5.049782 # O
549 183 1 0.417 6.687349 -1.871563 -5.175603 # H2
550 184 1 0.417 -3.060294 5.570222 -9.769711 # H1
551 184 2 -0.834 -2.119779 5.392300 -9.772421 # O
552 184 1 0.417 -1.711744 6.258168 -9.775772 # H2
553 185 1 0.417 2.657985 2.130641 -3.736533 # H1
554 185 2 -0.834 3.604175 1.995415 -3.684865 # O
555 185 1 0.417 3.949540 2.832130 -3.373635 # H2
556 186 1 0.417 9.775736 4.339401 -4.620648 # H1
557 186 2 -0.834 9.148749 4.733583 -4.014233 # O
558 186 1 0.417 8.464342 5.094580 -4.577705 # H2
559 187 1 0.417 -4.136012 -3.050552 -0.242171 # H1
560 187 2 -0.834 -4.658135 -2.648265 0.451935 # O
561 187 1 0.417 -4.951609 -3.384405 0.988779 # H2
562 188 1 0.417 0.382142 -3.906083 0.383556 # H1
563 188 2 -0.834 0.735789 -3.048525 0.619691 # O
564 188 1 0.417 1.674102 -3.199139 0.734220 # H2
565 189 1 0.417 -9.776378 -7.078963 7.088763 # H1
566 189 2 -0.834 -9.312386 -6.256571 7.245655 # O
567 189 1 0.417 -8.408558 -6.520145 7.418438 # H2
568 190 1 0.417 0.904926 -6.329701 0.063156 # H1
569 190 2 -0.834 0.676592 -7.255905 -0.015853 # O
570 190 1 0.417 0.733887 -7.594272 0.877711 # H2
571 191 1 0.417 0.653330 0.410886 7.214164 # H1
572 191 2 -0.834 0.973584 1.272715 7.480473 # O
573 191 1 0.417 1.927097 1.193560 7.452560 # H2
574 192 1 0.417 -9.777730 -1.008210 4.269154 # H1
575 192 2 -0.834 -9.140385 -0.888102 3.565168 # O
576 192 1 0.417 -8.289293 -0.972872 3.994922 # H2
577 193 1 0.417 5.614823 2.063687 5.843964 # H1
578 193 2 -0.834 6.035943 1.218647 5.686497 # O
579 193 1 0.417 6.905705 1.307638 6.076147 # H2
580 194 1 0.417 -4.662619 -9.086713 9.776535 # H1
581 194 2 -0.834 -4.448228 -9.227512 8.854339 # O
582 194 1 0.417 -5.157368 -9.779471 8.524654 # H2
583 195 1 0.417 -8.837321 3.792162 9.666360 # H1
584 195 2 -0.834 -9.764296 3.566529 9.744067 # O
585 195 1 0.417 -9.776503 2.609978 9.777149 # H2
586 196 1 0.417 9.776042 7.426430 7.103551 # H1
587 196 2 -0.834 9.442054 6.555460 7.318251 # O
588 196 1 0.417 8.552627 6.711093 7.635944 # H2
589 197 1 0.417 -6.659969 1.621079 8.008546 # H1
590 197 2 -0.834 -7.429794 2.014304 8.419613 # O
591 197 1 0.417 -7.912717 1.272400 8.783749 # H2
592 198 1 0.417 6.605498 -4.467920 -6.204983 # H1
593 198 2 -0.834 6.407581 -5.403068 -6.255562 # O